ITEM: TIMESTEP
0
ITEM: NUMBER OF ATOMS
500
ITEM: BOX BOUNDS pp pp pp
0.0000000000000000e+00 2.5000000000000000e+01
0.0000000000000000e+00 2.5000000000000000e+01
0.0000000000000000e+00 2.5000000000000000e+01
ITEM: ATOMS id type xs ys zs
34 1 0.057363 0.0998514 0.203218
274 2 0.225986 0.13924 0.205686
417 2 0.00470601 0.0938904 0.0153845
428 2 0.162851 0.0302971 0.203925
40 1 0.482538 0.011548 0.0872896
127 1 0.390501 0.150779 0.149745
172 1 0.333143 0.138529 0.248989
193 1 0.285424 0.123411 0.161239
304 2 0.417814 0.197491 0.23944
407 2 0.256571 0.188564 0.192085
444 2 0.378303 0.138943 0.210881
454 2 0.402936 0.148633 0.0733369
478 2 0.285371 0.228489 0.209778
99 1 0.645863 0.011437 0.220881
149 1 0.721195 0.124719 0.148304
398 2 0.673768 0.0174935 0.0128853
455 2 0.573455 0.0517142 0.161116
74 1 0.811095 0.0731902 0.108117
93 1 0.92195 0.209679 0.0796361
120 1 0.829777 0.0589698 0.106046
278 2 0.917661 0.12442 0.126601
285 2 0.886778 0.0771767 0.108694
288 2 0.909096 0.177258 0.177465
415 2 0.946815 0.127694 0.151197
432 2 0.88339 0.129892 0.097005
492 2 0.906004 0.216936 0.0443816
496 2 0.807229 0.0939533 0.0736662
15 1 0.0810614 0.399545 0.158929
311 2 0.0418575 0.498433 0.165077
427 2 0.139133 0.407632 0.0783104
447 2 0.211245 0.397454 0.0118477
162 1 0.388613 0.425073 0.207176
294 2 0.480243 0.441549 0.112847
344 2 0.294595 0.253234 0.111932
438 2 0.339053 0.468921 0.155496
459 2 0.461613 0.325702 0.0662214
473 2 0.486188 0.356109 0.131398
36 1 0.690216 0.468147 0.146559
38 1 0.515286 0.405975 0.222642
47 1 0.540874 0.468503 0.136189
50 1 0.618452 0.32784 0.00279595
124 1 0.546585 0.44964 0.103949
141 1 0.73621 0.489737 0.00204352
154 1 0.601029 0.494506 0.157949
249 2 0.628874 0.489333 0.215423
323 2 0.642845 0.301315 0.19715
332 2 0.677306 0.478561 0.172899
399 2 0.562587 0.403477 0.242663
114 1 0.80897 0.364911 0.0574465
180 1 0.875008 0.264903 0.228059
232 2 0.944624 0.289052 0.0977847
279 2 0.777136 0.31981 0.0414095
348 2 0.992112 0.422573 0.177976
486 2 0.923743 0.347548 0.241134
14 1 0.0711363 0.586973 0.249484
16 1 0.126836 0.740534 0.16033
22 1 0.132665 0.706971 0.0557319
104 1 0.232441 0.629451 0.177141
198 1 0.200314 0.675862 0.211901
239 2 0.0933927 0.651406 0.185827
256 2 0.165325 0.619983 0.0608558
307 2 0.245061 0.741596 0.0120044
321 2 0.22013 0.72292 0.123608
342 2 0.242668 0.520445 0.115784
355 2 0.225413 0.509793 0.0842215
436 2 0.13456 0.551442 0.0842362
476 2 0.201564 0.679552 0.226243
26 1 0.313542 0.695904 0.0656118
177 1 0.408138 0.574179 0.219543
218 2 0.335498 0.713042 0.0985405
316 2 0.426289 0.631354 0.173397
380 2 0.420748 0.503962 0.0924042
400 2 0.431639 0.556502 0.121456
419 2 0.396889 0.513899 0.101254
21 1 0.68297 0.677585 0.174876
23 1 0.685935 0.505809 0.126024
59 1 0.706169 0.585893 0.103366
221 2 0.567602 0.679308 0.137568
242 2 0.743185 0.704424 0.248983
295 2 0.615255 0.589406 0.141935
327 2 0.547782 0.579532 0.18732
353 2 0.563131 0.536334 0.159932
5 1 0.887229 0.662768 0.136785
78 1 0.931078 0.629503 0.053726
281 2 0.805362 0.725544 0.225739
352 2 0.802621 0.653243 0.0483467
406 2 0.805184 0.719107 0.0367262
431 2 0.848852 0.655089 0.0767468
452 2 0.924825 0.535733 0.0623423
30 1 0.168436 0.909326 0.0425532
72 1 0.21794 0.914441 0.0168318
77 1 0.247211 0.879645 0.197235
131 1 0.224119 0.769931 0.230913
163 1 0.00611592 0.790211 0.0795861
206 2 0.00849661 0.802524 0.0214681
210 2 0.0515711 0.754696 0.172053
325 2 0.218479 0.980844 0.0467417
63 1 0.4886 0.903863 0.231055
68 1 0.472298 0.905642 0.120985
142 1 0.345505 0.901772 0.0865016
174 1 0.264229 0.901534 0.0743056
223 2 0.4269 0.91349 0.0202417
237 2 0.40167 0.864704 0.0854147
317 2 0.286541 0.900162 0.0187296
362 2 0.324679 0.881847 0.199018
367 2 0.347589 0.926105 0.0498663
49 1 0.740819 0.936701 0.126056
85 1 0.594332 0.938003 0.0186724
97 1 0.694997 0.807761 0.0316827
155 1 0.644127 0.844891 0.0827318
326 2 0.587608 0.928127 0.0268666
54 1 0.88576 0.965266 0.232573
61 1 0.936147 0.817583 0.124755
62 1 0.758965 0.91944 0.0240072
153 1 0.885748 0.769098 0.237913
173 1 0.766225 0.943431 0.24176
246 2 0.991599 0.800395 0.232922
257 2 0.803295 0.979189 0.221534
286 2 0.815906 0.930456 0.165624
359 2 0.804714 0.827044 0.120389
363 2 0.889684 0.917963 0.200188
373 2 0.969891 0.965551 0.0209097
437 2 0.757649 0.809438 0.222547
125 1 0.0635596 0.246341 0.255339
144 1 0.193313 0.0049053 0.443451
229 2 0.214734 0.0372693 0.3856
361 2 0.23711 0.102773 0.298228
441 2 0.126852 0.00901009 0.432614
462 2 0.103475 0.11182 0.35437
483 2 0.0227315 0.0478547 0.29328
491 2 0.143109 0.22778 0.29975
498 2 0.182732 0.175074 0.474259
233 2 0.467968 0.139128 0.329643
349 2 0.250078 0.0665381 0.30653
386 2 0.365159 0.230224 0.37443
402 2 0.437974 0.0339892 0.256859
43 1 0.585596 0.10421 0.460985
52 1 0.595951 0.152465 0.475551
320 2 0.700551 0.160967 0.372477
376 2 0.727569 0.244094 0.48694
488 2 0.574359 0.248246 0.268194
128 1 0.767066 0.0780885 0.43328
165 1 0.949131 0.0388209 0.463211
175 1 0.854408 0.034717 0.489114
207 2 0.814132 0.120269 0.359778
370 2 0.980613 0.163055 0.45946
453 2 0.786889 0.247246 0.46602
75 1 0.122298 0.462204 0.258843
201 2 0.0150743 0.354341 0.414001
205 2 0.102534 0.285265 0.455346
219 2 0.169829 0.31316 0.276536
235 2 0.178404 0.435014 0.280641
252 2 0.0118097 0.485177 0.368122
334 2 0.199583 0.392485 0.49494
341 2 0.181083 0.468279 0.369741
481 2 0.0329238 0.350705 0.298681
484 2 0.159425 0.462155 0.43104
58 1 0.371418 0.418896 0.393033
108 1 0.346726 0.425447 0.493684
109 1 0.339829 0.498448 0.422103
156 1 0.473217 0.360342 0.26508
254 2 0.441202 0.275385 0.393675
388 2 0.31305 0.437512 0.260025
445 2 0.284903 0.368552 0.256062
42 1 0.570136 0.26771 0.400106
243 2 0.650645 0.393376 0.462362
297 2 0.566091 0.292813 0.304177
364 2 0.564488 0.342029 0.486918
467 2 0.651113 0.25296 0.496878
32 1 0.958071 0.305784 0.30781
39 1 0.946527 0.278303 0.443832
46 1 0.90584 0.459182 0.468587
79 1 0.972597 0.437336 0.303818
113 1 0.793438 0.320661 0.348177
167 1 0.849374 0.422696 0.256981
262 2 0.760957 0.407715 0.460306
272 2 0.756081 0.446986 0.495436
318 2 0.788922 0.405748 0.403883
377 2 0.99597 0.263071 0.442057
494 2 0.926359 0.307638 0.474111
145 1 0.0841052 0.555927 0.46734
166 1 0.193165 0.532187 0.473901
224 2 0.20234 0.72913 0.492664
416 2 0.163487 0.723591 0.388469
448 2 0.124803 0.556933 0.380781
497 2 0.107426 0.500946 0.395203
33 1 0.361368 0.509029 0.250197
103 1 0.353045 0.626375 0.478267
110 1 0.28956 0.630351 0.305349
269 2 0.3813 0.510825 0.434484
385 2 0.494717 0.71699 0.453285
408 2 0.366848 0.611496 0.40553
461 2 0.288909 0.687826 0.299941
7 1 0.543326 0.678603 0.278858
91 1 0.637866 0.611671 0.351039
189 1 0.577892 0.62363 0.352503
276 2 0.74735 0.70365 0.251504
357 2 0.648879 0.713529 0.28684
409 2 0.744546 0.589956 0.392946
446 2 0.630899 0.513017 0.283347
2 1 0.838135 0.538072 0.37281
101 1 0.837659 0.537832 0.341165
181 1 0.981289 0.522427 0.43054
208 2 0.789233 0.639217 0.328201
369 2 0.775192 0.66005 0.458439
394 2 0.824283 0.727692 0.311938
20 1 0.225676 0.933319 0.294382
31 1 0.191811 0.774342 0.368951
228 2 0.10048 0.77262 0.432571
240 2 0.186291 0.997579 0.312405
450 2 0.0907342 0.97039 0.349495
475 2 0.0558613 0.861031 0.356352
10 1 0.411723 0.832597 0.449412
35 1 0.491212 0.805584 0.455209
186 1 0.486814 0.890246 0.363483
258 2 0.316356 0.992047 0.333087
270 2 0.369482 0.881385 0.430313
271 2 0.271964 0.895782 0.402437
310 2 0.453309 0.76018 0.337005
322 2 0.483956 0.840205 0.323951
422 2 0.400306 0.94076 0.353987
424 2 0.404291 0.912614 0.303913
433 2 0.363832 0.922786 0.269188
440 2 0.487941 0.832775 0.454402
477 2 0.471941 0.919815 0.337555
84 1 0.705174 0.857999 0.391896
160 1 0.650197 0.859548 0.425202
183 1 0.642639 0.828371 0.435199
241 2 0.583144 0.896263 0.491209
289 2 0.662211 0.783146 0.342091
396 2 0.53769 0.95082 0.430181
443 2 0.595869 0.770242 0.455249
469 2 0.548631 0.834144 0.458519
480 2 0.513523 0.788028 0.379487
1 1 0.969462 0.750359 0.281718
45 1 0.885643 0.999791 0.490147
70 1 0.860881 0.835087 0.303113
132 1 0.958584 0.918218 0.488319
244 2 0.919081 0.994971 0.485042
251 2 0.78865 0.83824 0.293033
282 2 0.99625 0.967541 0.464199
338 2 0.916342 0.963735 0.486424
354 2 0.972689 0.989548 0.324878
411 2 0.956497 0.838787 0.498925
421 2 0.851179 0.772143 0.411043
449 2 0.787053 0.997401 0.318623
24 1 0.0935377 0.088389 0.553836
28 1 0.0399961 0.213813 0.56071
37 1 0.223955 0.00580611 0.583359
41 1 0.075755 0.214702 0.501789
140 1 0.157923 0.212205 0.537439
217 2 0.194337 0.227864 0.709248
315 2 0.201712 0.167586 0.615245
340 2 0.0565365 0.208586 0.705372
372 2 0.243541 0.190371 0.571248
434 2 0.245315 0.00248321 0.73539
464 2 0.0513576 0.166579 0.700012
465 2 0.0947835 0.0256251 0.680819
11 1 0.27233 0.0563161 0.503912
71 1 0.425007 0.0862442 0.506409
139 1 0.377287 0.0683479 0.722744
266 2 0.412699 0.236901 0.599494
313 2 0.387517 0.000281761 0.735556
347 2 0.277625 0.0375796 0.600107
429 2 0.363306 0.0802412 0.614632
13 1 0.735774 0.160146 0.575003
130 1 0.713692 0.0229389 0.53372
216 2 0.680323 0.189309 0.719652
238 2 0.565665 0.138196 0.667466
247 2 0.711907 0.0132503 0.698116
405 2 0.529486 0.0680455 0.640793
116 1 0.954844 0.062635 0.706529
178 1 0.854174 0.102733 0.641275
195 1 0.839602 0.198758 0.523266
200 1 0.765349 0.215597 0.538201
230 2 0.783854 0.242132 0.519979
275 2 0.964372 0.196388 0.687556
291 2 0.920818 0.188057 0.66783
308 2 0.757186 0.0288998 0.719691
463 2 0.891487 0.227151 0.723868
57 1 0.0376294 0.437779 0.744652
95 1 0.131096 0.322636 0.548966
135 1 0.0694584 0.386608 0.714357
136 1 0.203862 0.311692 0.610724
284 2 0.0244772 0.388389 0.647997
410 2 0.242779 0.38719 0.509012
500 2 0.00209758 0.253974 0.545144
126 1 0.475538 0.359656 0.744891
159 1 0.320427 0.409087 0.52482
231 2 0.291739 0.253627 0.701907
263 2 0.368557 0.329301 0.56152
268 2 0.264371 0.283904 0.57163
303 2 0.354573 0.313591 0.51963
305 2 0.261111 0.494357 0.65967
314 2 0.490236 0.401538 0.645874
392 2 0.493214 0.445143 0.516953
426 2 0.267292 0.384752 0.532286
27 1 0.73733 0.313055 0.509373
118 1 0.568536 0.379944 0.725118
169 1 0.676704 0.35977 0.651231
250 2 0.615592 0.257841 0.541904
267 2 0.695811 0.492332 0.616545
324 2 0.503259 0.270047 0.685561
330 2 0.504097 0.360713 0.503174
365 2 0.634931 0.293367 0.612939
395 2 0.743634 0.256173 0.507678
404 2 0.723356 0.43807 0.648452
19 1 0.794397 0.43384 0.555615
44 1 0.777978 0.484536 0.601112
384 2 0.755535 0.271883 0.537187
420 2 0.783208 0.377731 0.524772
451 2 0.955694 0.341674 0.507165
482 2 0.935941 0.353883 0.708932
490 2 0.974136 0.303189 0.695195
105 1 0.214174 0.618829 0.654442
106 1 0.204597 0.665773 0.640064
133 1 0.170913 0.542903 0.5634
151 1 0.207397 0.721583 0.645141
170 1 0.233399 0.739554 0.690229
227 2 0.0612628 0.644348 0.554418
245 2 0.0995157 0.560578 0.639792
253 2 0.024614 0.687721 0.529389
381 2 0.037574 0.506081 0.697125
69 1 0.392735 0.691587 0.510434
88 1 0.400935 0.516251 0.631745
148 1 0.277905 0.747763 0.644834
161 1 0.368224 0.746329 0.554197
234 2 0.304252 0.555815 0.581733
67 1 0.545234 0.745969 0.503568
107 1 0.551891 0.633403 0.608874
158 1 0.690287 0.650547 0.744054
190 1 0.520417 0.656376 0.706883
196 1 0.539042 0.679277 0.610736
299 2 0.667738 0.680295 0.712895
346 2 0.733188 0.687138 0.727809
379 2 0.562779 0.634359 0.672364
418 2 0.567713 0.549279 0.724365
435 2 0.695933 0.544273 0.588453
29 1 0.856463 0.570872 0.651405
51 1 0.99147 0.632921 0.500184
102 1 0.964511 0.535236 0.70324
179 1 0.911205 0.615496 0.648294
358 2 0.922985 0.60348 0.683811
493 2 0.92144 0.639539 0.729335
129 1 0.144273 0.799291 0.688089
134 1 0.0664475 0.783229 0.73452
168 1 0.0796585 0.819931 0.586225
182 1 0.0870449 0.963679 0.550821
345 2 0.233176 0.984447 0.596402
375 2 0.0400932 0.846535 0.710997
397 2 0.0465201 0.862648 0.51786
413 2 0.0118959 0.933987 0.511925
18 1 0.419941 0.951727 0.680002
64 1 0.348366 0.981827 0.573451
76 1 0.380017 0.946791 0.709124
94 1 0.444743 0.796199 0.713163
121 1 0.308017 0.841535 0.680358
185 1 0.298505 0.979444 0.507496
199 1 0.423924 0.891571 0.640374
328 2 0.288565 0.904656 0.555997
439 2 0.414642 0.883121 0.622091
471 2 0.487058 0.976292 0.532681
495 2 0.377454 0.868365 0.602595
171 1 0.677988 0.937735 0.513853
188 1 0.741475 0.973564 0.687962
212 2 0.653708 0.874254 0.590544
236 2 0.727729 0.939402 0.522723
329 2 0.640325 0.935237 0.52856
382 2 0.580232 0.955292 0.584488
479 2 0.744321 0.795357 0.55944
487 2 0.73111 0.769361 0.651429
73 1 0.891348 0.893351 0.550057
92 1 0.911879 0.942202 0.580646
111 1 0.996361 0.83892 0.727797
152 1 0.883429 0.792089 0.640798
226 2 0.767226 0.76294 0.734579
273 2 0.793297 0.943448 0.534255
350 2 0.85499 0.822554 0.672335
472 2 0.767942 0.809585 0.696524
499 2 0.870223 0.837728 0.698162
66 1 0.140009 0.124525 0.892042
82 1 0.113413 0.136784 0.93631
112 1 0.086403 0.174802 0.895269
202 2 0.106696 0.243161 0.806809
203 2 0.0374249 5.37126e-05 0.902748
292 2 0.222598 0.207115 0.982693
368 2 0.102765 0.169625 0.895744
389 2 0.245745 0.235199 0.987689
137 1 0.4387 0.227159 0.869274
213 2 0.277815 0.231497 0.776834
214 2 0.257284 0.16546 0.889263
260 2 0.377712 0.203539 0.882665
360 2 0.383301 0.147433 0.906482
383 2 0.490874 0.112511 0.974282
423 2 0.46261 0.0895341 0.799215
150 1 0.551982 0.163138 0.853407
191 1 0.576908 0.094714 0.857759
211 2 0.688824 0.0583574 0.812319
300 2 0.619875 0.231559 0.818383
3 1 0.814544 0.0384898 0.897598
8 1 0.761007 0.246255 0.813541
56 1 0.856132 0.0181964 0.82686
65 1 0.988696 0.0188464 0.750945
194 1 0.946098 0.0619917 0.894737
261 2 0.951694 0.116378 0.969046
309 2 0.841625 0.19217 0.803026
333 2 0.910518 0.0816195 0.779152
456 2 0.885 0.190871 0.966321
460 2 0.983519 0.00683822 0.929927
9 1 0.189592 0.480386 0.841638
12 1 0.241052 0.35698 0.759132
157 1 0.200052 0.272496 0.843083
222 2 0.106046 0.320578 0.959685
255 2 0.492135 0.309387 0.867387
264 2 0.467622 0.331281 0.847053
265 2 0.41752 0.255366 0.940823
296 2 0.499522 0.472591 0.834924
336 2 0.387835 0.349073 0.869182
412 2 0.439718 0.335094 0.924199
83 1 0.554496 0.41542 0.962558
117 1 0.637797 0.460341 0.958563
146 1 0.577701 0.42529 0.856925
164 1 0.60441 0.32081 0.858508
176 1 0.536286 0.359075 0.973904
287 2 0.636365 0.390006 0.835004
302 2 0.566631 0.359716 0.752505
366 2 0.660168 0.451478 0.999128
489 2 0.539554 0.279878 0.906109
4 1 0.936656 0.385783 0.853685
48 1 0.93475 0.337356 0.950422
283 2 0.786602 0.424457 0.855597
442 2 0.951227 0.269285 0.86884
457 2 0.95141 0.348484 0.964669
81 1 0.115639 0.548043 0.951991
90 1 0.0702451 0.608898 0.756687
119 1 0.0550082 0.523233 0.970002
187 1 0.0520937 0.53816 0.847846
225 2 0.207695 0.728683 0.970475
248 2 0.241719 0.568629 0.954461
259 2 0.197102 0.699992 0.757623
277 2 0.03128 0.722252 0.887423
293 2 0.119807 0.594024 0.761259
371 2 0.143489 0.613252 0.928794
390 2 0.0876235 0.687739 0.832606
430 2 0.128086 0.737431 0.999872
458 2 0.198228 0.619496 0.86437
468 2 0.0302635 0.638055 0.78661
60 1 0.275464 0.722373 0.925503
96 1 0.467698 0.594567 0.887588
100 1 0.338652 0.724281 0.994278
184 1 0.39714 0.732656 0.756726
192 1 0.348997 0.59296 0.874296
337 2 0.346795 0.578499 0.824473
339 2 0.327522 0.666613 0.76522
393 2 0.421051 0.600635 0.867723
401 2 0.306274 0.547615 0.764707
470 2 0.331382 0.532986 0.893228
474 2 0.400526 0.633593 0.801634
17 1 0.666254 0.735159 0.821528
89 1 0.732701 0.501397 0.987509
115 1 0.503464 0.716295 0.772116
197 1 0.639837 0.748315 0.926055
301 2 0.569205 0.632949 0.966119
378 2 0.649404 0.536908 0.805353
391 2 0.609728 0.692383 0.875736
466 2 0.530348 0.564281 0.878125
6 1 0.940364 0.69107 0.818977
55 1 0.84843 0.560062 0.968754
138 1 0.891923 0.55786 0.960813
343 2 0.975047 0.609321 0.857458
414 2 0.926253 0.541493 0.867612
123 1 0.222521 0.914794 0.936964
209 2 0.0680052 0.962685 0.845068
306 2 0.0721606 0.803177 0.99817
319 2 0.0558693 0.995418 0.991712
387 2 0.0503245 0.804304 0.930048
403 2 0.0241565 0.998329 0.915614
25 1 0.327122 0.934308 0.907557
80 1 0.266256 0.970478 0.825258
98 1 0.490801 0.896583 0.868903
147 1 0.338239 0.776164 0.982107
204 2 0.489249 0.807099 0.916767
298 2 0.299573 0.925207 0.945717
312 2 0.457059 0.795965 0.776366
335 2 0.449213 0.930619 0.919997
374 2 0.429509 0.763893 0.751118
485 2 0.496627 0.816257 0.82602
53 1 0.589861 0.797392 0.765448
220 2 0.746408 0.873144 0.925898
290 2 0.523881 0.865709 0.976136
356 2 0.510023 0.953821 0.870152
86 1 0.82631 0.783957 0.971674
87 1 0.924243 0.756285 0.88763
122 1 0.780028 0.928826 0.772846
143 1 0.833037 0.858746 0.937895
215 2 0.837141 0.833281 0.96089
280 2 0.969951 0.968227 0.984638
331 2 0.841007 0.80621 0.975884
351 2 0.931146 0.763012 0.934658
425 2 0.859329 0.75033 0.799802
ITEM: TIMESTEP
119
ITEM: NUMBER OF ATOMS
500
ITEM: BOX BOUNDS pp pp pp
0.0000000000000000e+00 2.5000000000000000e+01
0.0000000000000000e+00 2.5000000000000000e+01
0.0000000000000000e+00 2.5000000000000000e+01
ITEM: ATOMS id type xs ys zs
34 1 0.0726472 0.0652442 0.189101
274 2 0.174523 0.114955 0.196715
417 2 0.062778 0.117312 0.0499578
428 2 0.116597 0.959842 0.167609
40 1 0.479556 0.0307908 0.101495
127 1 0.40627 0.218032 0.138047
172 1 0.362172 0.166798 0.278464
193 1 0.279654 0.120153 0.146846
304 2 0.443935 0.231323 0.253681
407 2 0.175797 0.251035 0.118393
444 2 0.3986 0.111292 0.178766
454 2 0.369662 0.142871 0.0432556
478 2 0.296896 0.222068 0.207727
99 1 0.654074 0.00874011 0.225815
149 1 0.711348 0.124651 0.150638
398 2 0.661051 0.0207461 0.0216859
455 2 0.582133 0.0659565 0.144413
74 1 0.806919 0.105796 0.136413
93 1 0.897882 0.248335 0.132407
120 1 0.778519 0.0531444 0.0981205
278 2 0.915461 0.154345 0.074599
285 2 0.910575 0.031297 0.135968
288 2 0.877368 0.182106 0.227705
415 2 0.0197246 0.163774 0.175841
432 2 0.781654 0.197603 0.0946098
492 2 0.896252 0.292684 0.0217871
496 2 0.796172 0.0726514 0.996139
15 1 0.06593 0.406477 0.181025
311 2 0.00703255 0.517171 0.208845
427 2 0.110801 0.381004 0.0855074
447 2 0.214865 0.368973 0.97803
162 1 0.403703 0.408746 0.228649
294 2 0.450232 0.445034 0.13827
344 2 0.334809 0.293136 0.0848761
438 2 0.30683 0.419423 0.153102
459 2 0.479251 0.329487 0.0560894
473 2 0.538641 0.315848 0.183435
36 1 0.71864 0.427609 0.123282
38 1 0.500036 0.417358 0.238482
47 1 0.564877 0.412556 0.145812
50 1 0.620995 0.333891 0.0189063
124 1 0.560536 0.409212 0.0673272
141 1 0.776056 0.472766 0.0296263
154 1 0.637515 0.453493 0.12993
249 2 0.566732 0.507589 0.200673
323 2 0.685898 0.276525 0.16123
332 2 0.756137 0.503202 0.205941
399 2 0.66372 0.392787 0.241953
114 1 0.830644 0.392454 0.0685032
180 1 0.801554 0.264401 0.23524
232 2 0.00526657 0.291675 0.116533
279 2 0.751601 0.321038 0.023771
348 2 0.923482 0.410125 0.150437
486 2 0.882089 0.333337 0.265571
14 1 0.073158 0.592404 0.26392
16 1 0.135509 0.727526 0.186239
22 1 0.138597 0.709054 0.113877
104 1 0.275305 0.672661 0.182927
198 1 0.188024 0.653001 0.183296
239 2 0.0590996 0.646187 0.163252
256 2 0.198304 0.624849 0.0804354
307 2 0.242992 0.731017 -0.0123504
321 2 0.225501 0.767186 0.141106
342 2 0.26594 0.565583 0.198805
355 2 0.208289 0.483931 0.0622036
436 2 0.0645309 0.526776 0.0662986
476 2 0.14791 0.685904 0.280781
26 1 0.300169 0.641358 0.0229941
177 1 0.391573 0.585985 0.225776
218 2 0.361587 0.706682 0.0868475
316 2 0.412622 0.696776 0.222597
380 2 0.458027 0.486539 0.991163
400 2 0.463224 0.592168 0.129893
419 2 0.340223 0.547007 0.0684688
21 1 0.739815 0.681973 0.130145
23 1 0.692855 0.511399 0.099435
59 1 0.758742 0.569929 0.110773
221 2 0.524765 0.721852 0.1183
242 2 0.65562 0.755582 0.173513
295 2 0.66081 0.610754 0.138095
327 2 0.479964 0.58524 0.299765
353 2 0.575617 0.527068 0.0561094
5 1 0.932732 0.651652 0.173898
78 1 0.97133 0.628636 0.037719
281 2 0.83169 0.706547 0.182545
352 2 0.726262 0.570177 0.992267
406 2 0.722767 0.714166 0.0122255
431 2 0.847953 0.626508 0.0687205
452 2 0.916989 0.50732 0.0460772
30 1 0.183688 0.930328 0.0861019
72 1 0.214767 0.928514 0.00924627
77 1 0.221251 0.887192 0.198541
131 1 0.208502 0.803318 0.250418
163 1 0.983933 0.809595 0.0887042
206 2 0.016296 0.83089 0.990815
210 2 0.0755156 0.801419 0.140304
325 2 0.235613 0.0250575 0.0965656
63 1 0.484308 0.913552 0.213561
68 1 0.47567 0.932019 0.139077
142 1 0.346841 0.901105 0.113592
174 1 0.25593 0.907736 0.113817
223 2 0.502251 0.95665 0.0167176
237 2 0.443338 0.837907 0.0881032
317 2 0.309936 0.864239 0.01792
362 2 0.341326 0.827152 0.196148
367 2 0.37139 0.996703 0.0555548
49 1 0.683876 0.946786 0.107122
85 1 0.596738 0.949261 0.967405
97 1 0.685084 0.822308 0.0188311
155 1 0.649957 0.829068 0.085867
326 2 0.584267 0.907663 0.129009
54 1 0.876418 0.00493431 0.236602
61 1 0.954016 0.811826 0.155013
62 1 0.742454 0.936289 0.0229608
153 1 0.894472 0.78874 0.213483
173 1 0.779985 0.952684 0.259713
246 2 1.0118 0.802192 0.264204
257 2 0.778123 0.0570172 0.225124
286 2 0.790517 0.952211 0.119138
359 2 0.765749 0.816499 0.108047
363 2 0.899065 0.893882 0.198281
373 2 0.00165856 0.931401 0.0904451
437 2 0.700892 0.891766 0.220822
125 1 0.0307525 0.267311 0.220983
144 1 0.224387 0.969414 0.449501
229 2 0.244396 0.0667342 0.412277
361 2 0.232813 0.196399 0.339774
441 2 0.128032 0.00932761 0.485311
462 2 0.0824107 0.0885279 0.366045
483 2 0.979985 0.0613591 0.264749
491 2 0.0994336 0.207096 0.282109
498 2 0.155125 0.164951 0.468282
233 2 0.515696 0.149823 0.367004
349 2 0.304763 0.0801036 0.282236
386 2 0.370427 0.169748 0.388911
402 2 0.47817 0.0235146 0.250687
43 1 0.566629 0.10291 0.47729
52 1 0.623681 0.153758 0.467786
320 2 0.685455 0.117136 0.315463
376 2 0.734976 0.123387 0.461548
488 2 0.587671 0.185314 0.233064
128 1 0.795893 0.0381019 0.432491
165 1 0.938595 0.0752508 0.401574
175 1 0.840703 0.0793909 0.47709
207 2 0.849735 0.0997291 0.353658
370 2 0.96906 0.145527 0.482103
453 2 0.79594 0.232923 0.372869
75 1 0.0847664 0.471673 0.268685
201 2 0.00866092 0.383671 0.422738
205 2 0.151428 0.301161 0.399411
219 2 0.187635 0.318275 0.253811
235 2 0.16916 0.453453 0.207834
252 2 0.961752 0.505746 0.350575
334 2 0.125603 0.379985 0.515779
341 2 0.231439 0.528253 0.336701
481 2 0.0419369 0.359529 0.276953
484 2 0.197827 0.505112 0.486649
58 1 0.378019 0.406232 0.386069
108 1 0.353287 0.42201 0.463419
109 1 0.309013 0.500473 0.419953
156 1 0.463511 0.353511 0.274454
254 2 0.436243 0.308475 0.379931
388 2 0.373874 0.487251 0.297547
445 2 0.328475 0.348113 0.28458
42 1 0.533959 0.240925 0.427536
243 2 0.63693 0.468084 0.462044
297 2 0.566169 0.332596 0.330367
364 2 0.583573 0.331126 0.487444
467 2 0.645306 0.230395 0.394752
32 1 0.95951 0.289615 0.321872
39 1 0.907524 0.234956 0.39433
46 1 0.895972 0.467049 0.453734
79 1 0.954589 0.427548 0.273111
113 1 0.78939 0.332065 0.323969
167 1 0.846204 0.439155 0.236305
262 2 0.720512 0.358984 0.41434
272 2 0.794678 0.496996 0.49828
318 2 0.813923 0.45139 0.346685
377 2 0.0175973 0.238311 0.392489
494 2 0.873773 0.344591 0.431482
145 1 0.0690594 0.529268 0.459803
166 1 0.227671 0.606511 0.486783
224 2 0.231504 0.74037 0.537002
416 2 0.218658 0.677263 0.40783
448 2 0.0713619 0.604603 0.371006
497 2 0.112565 0.460815 0.371012
33 1 0.368995 0.517607 0.191153
103 1 0.347807 0.628649 0.487497
110 1 0.279899 0.61507 0.294272
269 2 0.420407 0.506457 0.435885
385 2 0.466459 0.652662 0.474621
408 2 0.3493 0.618338 0.377912
461 2 0.285754 0.731345 0.289061
7 1 0.505779 0.704637 0.275358
91 1 0.629998 0.625132 0.367539
189 1 0.556295 0.611453 0.372182
276 2 0.744892 0.680377 0.295273
357 2 0.604231 0.652601 0.263227
409 2 0.719738 0.581695 0.406995
446 2 0.621623 0.508617 0.328465
2 1 0.956913 0.619986 0.390878
101 1 0.846751 0.525614 0.272616
181 1 0.981878 0.52575 0.458043
208 2 0.852686 0.59917 0.359819
369 2 0.828837 0.643779 0.511231
394 2 0.89943 0.725793 0.307194
20 1 0.25325 0.887127 0.281839
31 1 0.197164 0.778437 0.340598
228 2 0.0839201 0.742366 0.435274
240 2 0.19306 0.98697 0.284939
450 2 0.0579868 0.94165 0.308188
475 2 -0.00613687 0.845284 0.400011
10 1 0.405514 0.771508 0.475032
35 1 0.48377 0.767496 0.465969
186 1 0.518223 0.86929 0.357357
258 2 0.307838 0.942855 0.369363
270 2 0.306394 0.811187 0.433329
271 2 0.17156 0.874503 0.387048
310 2 0.412478 0.750876 0.360657
322 2 0.528286 0.807882 0.237729
422 2 0.427343 0.0264968 0.390155
424 2 0.42241 0.888479 0.300802
433 2 0.331991 0.968957 0.199307
440 2 0.44807 0.880546 0.44713
477 2 0.58392 0.935195 0.293183
84 1 0.722877 0.880443 0.404251
160 1 0.634516 0.885518 0.40428
183 1 0.682359 0.823898 0.434988
241 2 0.579058 0.948675 0.542612
289 2 0.662269 0.799626 0.331805
396 2 0.582834 0.024972 0.406814
443 2 0.636503 0.681331 0.47491
469 2 0.583643 0.819581 0.478362
480 2 0.547032 0.726777 0.373436
1 1 0.958011 0.638234 0.347052
45 1 0.826641 0.00716927 0.498694
70 1 0.907072 0.844428 0.300186
132 1 0.991684 0.901411 0.490501
244 2 0.910683 0.0468627 0.565112
251 2 0.800854 0.84663 0.326916
282 2 0.991915 0.995517 0.44168
338 2 0.862986 0.91312 0.459625
354 2 0.902741 0.957571 0.329317
411 2 0.964482 0.816437 0.549219
421 2 0.872551 0.764327 0.442096
449 2 0.735136 0.983208 0.359768
24 1 0.0795501 0.0888231 0.555219
28 1 0.0583248 0.165424 0.562109
37 1 0.189637 0.0206953 0.571347
41 1 0.0667244 0.215902 0.49635
140 1 0.124731 0.21136 0.56269
217 2 0.188393 0.2803 0.694854
315 2 0.181998 0.1269 0.613247
340 2 0.0590614 0.229458 0.651192
372 2 0.31251 0.135716 0.522545
434 2 0.236022 0.0442032 0.761868
464 2 0.117601 0.136958 0.748808
465 2 0.109006 0.0135865 0.665689
11 1 0.258384 0.0380159 0.518288
71 1 0.422286 0.110045 0.495399
139 1 0.360319 0.105097 0.748347
266 2 0.42526 0.231642 0.559663
313 2 0.384512 0.992154 0.76202
347 2 0.282917 0.0133962 0.628172
429 2 0.393801 0.105985 0.643002
13 1 0.716711 0.147967 0.590675
130 1 0.75475 0.0379388 0.532073
216 2 0.74212 0.157985 0.695983
238 2 0.597116 0.168924 0.702917
247 2 0.645514 0.0248128 0.7206
405 2 0.522736 0.0492286 0.646758
116 1 0.976637 0.0613005 0.662236
178 1 0.828684 0.0708382 0.639678
195 1 0.856596 0.138434 0.514271
200 1 0.782833 0.161389 0.559499
230 2 0.854124 0.241919 0.534405
275 2 0.977076 0.191231 0.767922
291 2 0.891127 0.162926 0.653293
308 2 0.789678 0.0245283 0.740262
463 2 0.851502 0.279122 0.775794
57 1 0.0143154 0.381019 0.7868
95 1 0.110784 0.285705 0.56891
135 1 0.101136 0.395191 0.745458
136 1 0.16915 0.348253 0.616367
284 2 0.0648188 0.401201 0.643866
410 2 0.260373 0.399034 0.406034
500 2 0.996282 0.288609 0.532603
126 1 0.488401 0.359591 0.713122
159 1 0.360435 0.439156 0.540872
231 2 0.32622 0.227589 0.683484
263 2 0.38196 0.359491 0.635026
268 2 0.226168 0.255145 0.559726
303 2 0.328046 0.289894 0.469948
305 2 0.188882 0.491043 0.642262
314 2 0.50413 0.440031 0.644235
392 2 0.524587 0.526714 0.529532
426 2 0.264502 0.39521 0.566651
27 1 0.702672 0.374269 0.531999
118 1 0.60594 0.420014 0.685276
169 1 0.678083 0.379458 0.667317
250 2 0.559264 0.185975 0.549073
267 2 0.653666 0.46285 0.603377
324 2 0.476227 0.249665 0.70014
330 2 0.451665 0.382879 0.507689
365 2 0.603616 0.30583 0.631827
395 2 0.706709 0.252968 0.535726
404 2 0.751359 0.445227 0.715435
19 1 0.84374 0.486031 0.603984
44 1 0.764362 0.51487 0.615693
384 2 0.751636 0.300236 0.674114
420 2 0.819314 0.379381 0.574163
451 2 0.955464 0.443305 0.547266
482 2 0.893 0.42759 0.734458
490 2 0.938201 0.312349 0.663026
105 1 0.229015 0.599346 0.666746
106 1 0.202032 0.657012 0.607353
133 1 0.196755 0.577291 0.571544
151 1 0.193223 0.775956 0.629137
170 1 0.261286 0.780114 0.691294
227 2 0.112567 0.619196 0.515412
245 2 0.0932241 0.598022 0.651653
253 2 0.981405 0.675766 0.562211
381 2 0.0254057 0.485304 0.757653
69 1 0.374609 0.69503 0.510951
88 1 0.405367 0.513353 0.635197
148 1 0.287658 0.723559 0.629438
161 1 0.369433 0.749417 0.558208
234 2 0.320954 0.565473 0.573357
67 1 0.536195 0.730893 0.530459
107 1 0.552734 0.636041 0.538929
158 1 0.670712 0.63162 0.780475
190 1 0.516833 0.669956 0.712495
196 1 0.53583 0.70482 0.601602
299 2 0.614512 0.71662 0.721523
346 2 0.751203 0.591517 0.71057
379 2 0.564324 0.604824 0.642552
418 2 0.589559 0.513515 0.751487
435 2 0.698055 0.594754 0.56898
29 1 0.833691 0.566366 0.637275
51 1 0.983453 0.601004 0.480055
102 1 0.920902 0.535431 0.74824
179 1 0.879095 0.651552 0.608353
358 2 0.94351 0.555923 0.640595
493 2 0.868035 0.681425 0.719076
129 1 0.143854 0.800877 0.683494
134 1 0.0861169 0.770222 0.753018
168 1 0.0874365 0.782309 0.603234
182 1 0.133079 0.949718 0.577747
345 2 0.204504 0.890741 0.678693
375 2 0.0469023 0.851571 0.688673
397 2 0.112726 0.854602 0.524538
413 2 0.0144507 0.95127 0.583704
18 1 0.429811 0.972989 0.654257
64 1 0.354599 0.956543 0.571014
76 1 0.350049 0.915093 0.690015
94 1 0.472912 0.82506 0.699882
121 1 0.296662 0.847997 0.728878
185 1 0.322578 0.991872 0.491331
199 1 0.432068 0.89954 0.692
328 2 0.252555 0.907681 0.530537
439 2 0.477589 0.850724 0.589426
471 2 0.441569 0.00634303 0.533484
495 2 0.335837 0.828949 0.623843
171 1 0.653399 0.951763 0.431825
188 1 0.719092 0.973543 0.662472
212 2 0.633733 0.826605 0.617033
236 2 0.722121 0.930453 0.506665
329 2 0.650041 0.0692638 0.568095
382 2 0.541942 0.9164 0.711447
479 2 0.745187 0.783701 0.510271
487 2 0.736415 0.718049 0.639443
73 1 0.878615 0.888665 0.561073
92 1 0.914988 0.929221 0.616831
111 1 0.969009 0.811311 0.755999
152 1 0.940427 0.756076 0.642434
226 2 0.749231 0.737332 0.794018
273 2 0.812129 0.960064 0.612132
350 2 0.843291 0.814204 0.634953
472 2 0.727647 0.877702 0.723815
499 2 0.906902 0.908443 0.733651
66 1 0.159197 0.0717988 0.898143
82 1 0.109312 0.101988 0.954554
112 1 0.0314552 0.19333 0.864932
202 2 0.0901922 0.301617 0.799938
203 2 0.0513012 0.0743165 0.861482
292 2 0.206517 0.145665 0.0214124
368 2 0.135892 0.189304 0.895674
389 2 0.293897 0.244984 0.952612
137 1 0.4761 0.162238 0.880272
213 2 0.243025 0.220456 0.806152
214 2 0.265703 0.108326 0.890494
260 2 0.384299 0.207481 0.824341
360 2 0.405266 0.0778057 0.910262
383 2 0.537135 0.0986134 0.978769
423 2 0.487574 0.104035 0.784143
150 1 0.554545 0.163344 0.862913
191 1 0.577821 0.091476 0.860863
211 2 0.689074 0.0658596 0.862263
300 2 0.658796 0.213862 0.835557
3 1 0.794367 0.0381101 0.887417