LAMMPS (20 Nov 2019)
#INIT
units metal
dimension 3
atom_style charge #atomic
boundary p p p
neighbor 2.0 bin
neigh_modify delay 1 #check yes one 1000 page 2000


#SYS DEF
region box block 0 25 0 25 0 25
create_box 2 box
Created orthogonal box = (0 0 0) to (25 25 25)
  1 by 1 by 1 MPI processor grid

create_atoms 1 random 200 123 box
Created 200 atoms
  create_atoms CPU = 0.0001678 secs
create_atoms 2 random 300 234 box
Created 300 atoms
  create_atoms CPU = 1.47e-05 secs

mass 1 26.9815
mass 2 15.9994
set atom 1 charge 1.4175
  1 settings made for charge
set atom 2 charge -0.9450
  1 settings made for charge

#potential config
pair_style born/coul/long 10.0
pair_coeff 1 1 0.00294848 0.068 1.5704 0.14561856 1
pair_coeff 1 2 0.00745792 0.172 2.6067 0.35836056 1
pair_coeff 2 2 0.01196736 0.276 3.643 	 0.88190881 1

kspace_style pppm 1.0e-4


#SIMULATION
dump dmp all atom 5000 article_dump.lammpstrj


#RUN
#minimize energy so there is no overlap
timestep 0.0005
minimize 1.0e-4 1.0e-6 10000 100000
WARNING: Using 'neigh_modify every 1 delay 0 check yes' setting during minimization (src/min.cpp:178)
PPPM initialization ...
WARNING: System is not charge neutral, net charge = 0.4725 (src/kspace.cpp:304)
  using 12-bit tables for long-range coulomb (src/kspace.cpp:323)
  G vector (1/distance) = 0.154195
  grid = 4 4 4
  stencil order = 5
  estimated absolute RMS force accuracy = 0.00124323
  estimated relative force accuracy = 8.63378e-05
  using double precision FFTW3
  3d grid and FFT values/proc = 729 64
Neighbor list info ...
  update every 1 steps, delay 0 steps, check yes
  max neighbors/atom: 2000, page size: 100000
  master list distance cutoff = 12
  ghost atom cutoff = 12
  binsize = 6, bins = 5 5 5
  1 neighbor lists, perpetual/occasional/extra = 1 0 0
  (1) pair born/coul/long, perpetual
      attributes: half, newton on
      pair build: half/bin/atomonly/newton
      stencil: half/bin/3d/newton
      bin: standard
Per MPI rank memory allocation (min/avg/max) = 5.899 | 5.899 | 5.899 Mbytes
Step Temp E_pair E_mol TotEng Press 
       0            0     18605477            0     18605477 5.0990897e+09 
     119            0   -6.0779787            0   -6.0779787    4658.5338 
Loop time of 0.421837 on 1 procs for 119 steps with 500 atoms

99.8% CPU use with 1 MPI tasks x no OpenMP threads

Minimization stats:
  Stopping criterion = energy tolerance
  Energy initial, next-to-last, final = 
          18605477.445     -6.07738284229     -6.07797870776
  Force two-norm initial, final = 1.7073e+09 0.371193
  Force max component initial, final = 1.01993e+09 0.0644745
  Final line search alpha, max atom move = 0.0395001 0.00254675
  Iterations, force evaluations = 119 273

MPI task timing breakdown:
Section |  min time  |  avg time  |  max time  |%varavg| %total
---------------------------------------------------------------
Pair    | 0.37198    | 0.37198    | 0.37198    |   0.0 | 88.18
Kspace  | 0.036185   | 0.036185   | 0.036185   |   0.0 |  8.58
Neigh   | 0.0070522  | 0.0070522  | 0.0070522  |   0.0 |  1.67
Comm    | 0.0027318  | 0.0027318  | 0.0027318  |   0.0 |  0.65
Output  | 0          | 0          | 0          |   0.0 |  0.00
Modify  | 0          | 0          | 0          |   0.0 |  0.00
Other   |            | 0.003892   |            |       |  0.92

Nlocal:    500 ave 500 max 500 min
Histogram: 1 0 0 0 0 0 0 0 0 0
Nghost:    3228 ave 3228 max 3228 min
Histogram: 1 0 0 0 0 0 0 0 0 0
Neighs:    57684 ave 57684 max 57684 min
Histogram: 1 0 0 0 0 0 0 0 0 0

Total # of neighbors = 57684
Ave neighs/atom = 115.368
Neighbor list builds = 7
Dangerous builds = 0


#heating
timestep 0.001
velocity all create 5000 87287

fix 1 all nvt temp 5000 5000 0.1
fix 2 all deform 1 x final 0 15.70866 y final 0 14.29263 z final 0 18.1387987 units box
thermo 50
thermo_style custom step cpu temp press ke pe etotal vol
thermo_modify lost ignore
dump 1 all atom 1000 web_dump.lammpstrj
run 500000
PPPM initialization ...
  using 12-bit tables for long-range coulomb (src/kspace.cpp:323)
  G vector (1/distance) = 0.154195
  grid = 4 4 4
  stencil order = 5
  estimated absolute RMS force accuracy = 0.00124323
  estimated relative force accuracy = 8.63378e-05
  using double precision FFTW3
  3d grid and FFT values/proc = 729 64
Per MPI rank memory allocation (min/avg/max) = 4.774 | 4.774 | 4.774 Mbytes
Step CPU Temp Press KinEng PotEng TotEng Volume 
     119            0         5000     26704.76    322.50406   -6.0779787    316.42608        15625 
     150  0.036820291    4099.7208    43462.111    264.43532    52.731428    317.16675    15623.959 
     200  0.094589777    4240.3866     47634.88    273.50838    60.895177    334.40356    15622.281 
     250   0.15452886    4489.2474    49040.374    289.56011    62.064683    351.62479    15620.602 
     300   0.21402725    4653.9399    51767.357     300.1829    68.492011    368.67492    15618.924 
     350   0.27513804     4818.345    55086.107    310.78716    76.704355    387.49152    15617.245 
     400   0.33683192    5062.0927    56036.507    326.50909    76.685425    403.19451    15615.567 
     450   0.39913341    5104.6079    58485.045    329.25136    83.940664    413.19202    15613.889 
     500   0.46048909    5315.9906    56114.458    342.88571    72.623376    415.50909    15612.211 
     550   0.52218438    5336.0439    52837.861    344.17917    63.709517    407.88868    15610.534 
     600   0.58619016    4907.6381    55816.761    316.54665    77.316246    393.86289    15608.856 
     650   0.65140045    4812.6857    53910.916    310.42214    73.699204    384.12134    15607.178 
     700   0.71459983    4744.0327    53804.238    305.99396     73.92316    379.91712    15605.501 
     750   0.77775692    4808.4852    53833.192     310.1512    71.861523    382.01273    15603.824 
     800    0.8408016    4964.7428    53500.715    320.22994     70.53517    390.76511    15602.146 
     850   0.90526109     5088.361    55390.058    328.20342    73.035923    401.23934    15600.469 
     900   0.96884157    5186.1095     55521.72    334.50828    72.571795    407.08007    15598.792 
     950    1.0325203    5128.8827    56026.027     330.8171    75.397203     406.2143    15597.116 
    1000    1.0977437    5092.1426    54755.801    328.44733    71.596058    400.04339    15595.439 
    1050    1.1577221    4847.6728     54001.79    312.67883    74.339004    387.01783    15593.762 
    1100    1.2162491    4713.0862    52856.415    303.99789    69.411925    373.40982    15592.086 
    1150    1.2750529    4655.8825    52215.379     300.3082    69.384086    369.69229    15590.409 
    1200    1.3343309    4666.6423    54113.932    301.00222    76.174161    377.17638    15588.733 
    1250    1.3952393    4957.1899    55001.939    319.74278    72.919291    392.66207    15587.057 
    1300    1.4563806    4904.0403    58482.645    316.31459    85.026446    401.34103    15585.381 
    1350    1.5179206    5198.5046    53847.891    335.30777    68.707545    404.01531    15583.705 
    1400    1.5806802    5058.8391    55736.327    326.29923    74.696856    400.99609    15582.029 
    1450    1.6442665    4985.4875    55688.549    321.56799     74.96599    396.53398    15580.354 
    1500    1.7074426    4920.7258    55454.244    317.39081    76.281173    393.67198    15578.678 
    1550    1.7703486    4915.5706    55400.947     317.0583    76.102176    393.16048    15577.003 
    1600    1.8335846    4876.1582    56905.638    314.51617    80.322685    394.83885    15575.327 
    1650    1.8969725    5059.9859    54936.679     326.3732    73.242686    399.61589    15573.652 
    1700     1.960569    5148.0049    55701.886     332.0505    75.630554    407.68105    15571.977 
    1750    2.0245824     5242.546    57470.445    338.14847    77.125248    415.27372    15570.302 
    1800    2.0869323    5239.4527    56828.575    337.94895    77.547434    415.49639    15568.627 
    1850    2.1498274    4999.7337    57151.356    322.48688    80.815709    403.30259    15566.953 
    1900    2.2149967    4825.1125    55519.051    311.22367    76.812094    388.03577    15565.278 
    1950     2.278975    4771.9211    53678.177    307.79278    73.799786    381.59257    15563.604 
    2000      2.34337    4795.9425    54437.355    309.34219    74.135919     383.4781    15561.929 
    2050    2.4031054    4906.0557    54668.069    316.44458    73.873425    390.31801    15560.255 
    2100    2.4640271     4995.177    56013.688    322.19298     76.15388    398.34686    15558.581 
    2150    2.5245451    5137.9799    56683.344    331.40388    73.342669    404.74655    15556.907 
    2200    2.5867502    5083.9611    56109.655    327.91962    78.085875    406.00549    15555.233 
    2250    2.6495001     5094.083    56770.567    328.57249    74.831828    403.40432    15553.559 
    2300    2.7131559    4970.8681    55764.335    320.62503     78.06236    398.68739    15551.886 
    2350    2.7764574    5056.2074    54889.986    326.12948    70.577975    396.70746    15550.212 
    2400      2.83994    4947.6728     55280.62    319.12891    76.663672    395.79259    15548.539 
    2450    2.9034652    4962.6152    56127.135    320.09271    76.018208    396.11092    15546.865 
    2500    2.9676421    4873.1363    57085.102    314.32125    82.775183    397.09643    15545.192 
    2550     3.032459    4891.1994    58302.583    315.48633    84.020194    399.50653    15543.519 
    2600    3.0962894     5087.399    56725.189    328.14137    78.487951    406.62932    15541.846 
    2650    3.1608457    5275.3126    58987.914    340.26195    80.436139    420.69809    15540.173 
    2700     3.224598    5565.7504    58037.225    358.99542    74.672357    433.66778    15538.501 
    2750    3.2879516    5458.2595    59383.897    352.06217    78.930805    430.99298    15536.828 
    2800    3.3511144     5025.142     59563.43    324.12574    88.492731    412.61847    15535.156 
    2850    3.4136095    4974.6922     56287.07    320.87169    78.988769    399.86046    15533.483 
    2900    3.4769381     4998.075    54655.039     322.3799    71.503524    393.88342    15531.811 
    2950    3.5403885    4900.1182    54822.625     316.0616    74.094836    390.15644    15530.139 
    3000    3.6054055      4927.07    54310.597    317.80002    71.850983      389.651    15528.467 
    3050     3.667895    5017.6522      53595.6    323.64264      69.0801    392.72274    15526.795 
    3100    3.7291331    5032.6191    55256.133    324.60802    74.106086     398.7141    15525.123 
    3150    3.7901758    5210.0726    55341.515    336.05392    70.351536    406.40545    15523.452 
    3200    3.8521361    5290.5662    55870.678    341.24582     71.95498     413.2008     15521.78 
    3250    3.9150528    5238.4239    57798.911     337.8826    77.952655    415.83525    15520.109 
    3300    3.9794669    5213.2218    56006.817    336.25704    73.507624    409.76466    15518.438 
    3350    4.0443927    4958.1349    55941.037    319.80373     74.04946    393.85319    15516.766 
    3400    4.1088173    4784.4059    53890.952    308.59807     73.76783     382.3659    15515.095 
    3450    4.1715041    4811.4755    53094.846    310.34408    69.273487    379.61757    15513.424 
    3500    4.2361248    4806.3693    54384.966    310.01472    73.191286    383.20601    15511.754 
    3550    4.3085408    4895.7269    55850.434    315.77836    77.154696    392.93306    15510.083 
    3600    4.3801303    5011.0909    57071.027    323.21944    79.587368     402.8068    15508.412 
    3650    4.4482341    5134.1645     56440.67    331.15778    76.640691    407.79847    15506.742 
    3700     4.515817    5146.6167     56761.57    331.96096    75.559228    407.52018    15505.072 
    3750    4.5830284    5118.2675    55651.355    330.13241    74.486008    404.61842    15503.401 
    3800    4.6520408    4988.6542    57408.068    321.77225    79.920503    401.69275    15501.731 
    3850    4.7196967    4936.4636    57599.433    318.40591    80.477993    398.88391    15500.061 
    3900    4.7858422     4881.675    57192.444      314.872     81.32468    396.19668    15498.391 
    3950    4.8546434    4962.9744    55442.585    320.11588    75.324856    395.44074    15496.722 
    4000    4.9241664    4917.3438    56600.133    317.17267    78.288111    395.46078    15495.052 
    4050    4.9843562    4950.7525    56173.655    319.32756    77.194328    396.52189    15493.383 
    4100    5.0463451    5030.8724    55887.732    324.49536    74.842339     399.3377    15491.713 
    4150    5.1068217    5035.0444     57794.05    324.76445    79.633236    404.39769    15490.044 
    4200    5.1686619    5166.4572    58004.018    333.24069    78.722611     411.9633    15488.375 
    4250    5.2350664    5229.9582    58570.574    337.33655    80.544224    417.88078    15486.706 
    4300    5.3030521    5254.6199     57138.83    338.92725     75.90486    414.83211    15485.037 
    4350    5.3666801    5096.2939    55907.822    328.71509    73.448159    402.16325    15483.368 
    4400    5.4294987    4799.4684    56953.114    309.56961    79.645975    389.21558    15481.699 
    4450    5.5018879    4949.3948    52024.793    319.23998    64.487544    383.72753    15480.031 
    4500    5.5713574    4854.0586    53723.542    313.09072    70.003919    383.09464    15478.362 
    4550    5.6454812    4897.1373     54120.37    315.86934    71.234454    387.10379    15476.694 
    4600    5.7196597    4909.1157    56864.707    316.64195    79.437191    396.07914    15475.026 
    4650    5.7925122    5101.9566    58172.649    329.08035    80.748102    409.82845    15473.358 
    4700    5.8637817    5215.4128    59327.772    336.39836    82.689429    419.08779     15471.69 
    4750     5.936133     5304.392    57641.276     342.1376    76.658471    418.79607    15470.022 
    4800    6.0119492    5175.7118     58038.31    333.83762    79.463408    413.30102    15468.354 
    4850    6.0796285     5121.098    57534.118    330.31498    77.414579    407.72956    15466.686 
    4900    6.1441132    5018.9592    57133.895    323.72694    77.898333    401.62528    15465.019 
    4950    6.2135099    4997.1349    55575.446    322.31926    73.106774    395.42603    15463.352 
    5000    6.2830031    4914.4781    55249.246    316.98783    72.645164    389.63299    15461.684 
    5050    6.3444543     4797.268    56292.526    309.42768    77.838416     387.2661    15460.017 
    5100    6.4065915    4939.7297    55337.348    318.61658     72.81221    391.42879     15458.35 
    5150    6.4713428     5021.752     57132.04    323.90708     78.90734    402.81442    15456.683 
    5200    6.5371018    5386.6838    56179.824    347.44548    70.575222     418.0207    15455.016 
    5250    6.6024327    5494.0097    56738.118    354.36809    70.069332    424.43742     15453.35 
    5300    6.6638077    5249.5788    58360.455    338.60209     79.85094    418.45303    15451.683 
    5350    6.7280818    5129.1678    56452.799    330.83549    73.707878    404.54337    15450.017 
    5400    6.7920903    4909.7053    55557.436    316.67998     76.07957    392.75955     15448.35 
    5450    6.8559892    4965.2024    53981.364    320.25959    70.011257    390.27084    15446.684 
    5500    6.9208753    4930.3241    55193.443    318.00991    72.476299    390.48621    15445.018 
    5550    6.9855183    4983.0047     54694.22    321.40785    71.220134    392.62798    15443.352 
    5600    7.0513729     5043.789    54511.117    325.32849    70.906946    396.23543    15441.686 
    5650    7.1169732    5037.2066    56436.836    324.90392    75.088285     399.9922     15440.02 
    5700     7.180468     5083.717    56645.444    327.90387     75.81565    403.71952    15438.355 
    5750    7.2441977    5110.3271    57766.073    329.62025    77.533631    407.15388    15436.689 
    5800         7.31    5132.1022    56782.132    331.02476    76.961029    407.98579    15435.024 
    5850    7.3738304    5021.8907    57225.396    323.91603    78.544238    402.46027    15433.359 
    5900    7.4398817    4977.6011    54454.783    321.05931    71.328998    392.38831    15431.694 
    5950    7.5050864    4802.1476    54316.853    309.74242    72.133244    381.87567    15430.029 
    6000    7.5708833    4769.4363    53542.832    307.63252       68.731    376.36352    15428.364 
    6050     7.632627    4783.0878    53576.878    308.51305    70.459846    378.97289    15426.699 
    6100    7.6938524     4941.133    54585.972    318.70709    72.766879    391.47397    15425.034 
    6150    7.7556571    5157.2312    57063.752     332.6456    74.231881    406.87749     15423.37 
    6200    7.8180831    5225.1955    57091.335    337.02936    74.119898    411.14926    15421.705 
    6250     7.878647    4960.7254    60298.398    319.97082     89.30357    409.27439    15420.041 
    6300    7.9412559    5048.4347    58553.348    325.62814    80.345073    405.97321    15418.377 
    6350    8.0039501    5035.1245    56705.157    324.76962    75.078102    399.84772    15416.713 
    6400    8.0668495    4934.0788    56041.463    318.25209    75.314679    393.56677    15415.049 
    6450    8.1299055    4901.8834    55148.026    316.17546    73.833024    390.00848    15413.385 
    6500    8.1919537    4827.1542    56846.717    311.35537    78.044594    389.39996    15411.721 
    6550    8.2569346    4850.7446    57627.622    312.87697    82.433247    395.31021    15410.057 
    6600    8.3201818    5326.9745    56537.549    343.59418    70.992896    414.58708    15408.394 
    6650    8.3832844    5395.4575    59135.012    348.01139     79.54582    427.55721    15406.731 
    6700    8.4488324     5312.583    60008.257    342.66592    82.282914    424.94884    15405.067 
    6750    8.5134336    5132.2613    59019.221    331.03502    82.488234    413.52326    15403.404 
    6800     8.578362    4917.6011    59066.212    317.18926    84.381768    401.57103    15401.741 
    6850    8.6435478    5037.0358    54622.401     324.8929     69.98521    394.87811    15400.078 
    6900     8.709569    4785.0347    57940.107    308.63863    83.285951    391.92458    15398.415 
    6950    8.7753544    4883.9462    56973.601     315.0185    79.522558    394.54105    15396.753 
    7000     8.840948    5021.4031    57720.809    323.88458    77.393768    401.27835     15395.09 
    7050    8.9020748    5324.4713    54187.359    343.43272      64.8796    408.31232    15393.428 
    7100    8.9627168    5186.7028    56993.123    334.54655    75.014262    409.56081    15391.765 
    7150    9.0248553    4949.9381    58821.127    319.27503    81.810362    401.08539    15390.103 
    7200    9.0880916     4777.316    54457.133    308.14076    74.103068    382.24383    15388.441 
    7250    9.1512805    4709.5239    52186.289    303.76812    67.483796    371.25191    15386.779 
    7300    9.2163363    4657.0999    53745.134    300.38673     70.68684    371.07357    15385.117 
    7350    9.2822712    4722.9439     55485.96    304.63372    75.991886     380.6256    15383.456 
    7400    9.3455286    4965.9792    55762.148     320.3097    74.060788    394.37048    15381.794 
    7450    9.4086741    5075.9605    56973.776    327.40358    75.423477    402.82705    15380.132 
    7500    9.4737589     5243.248    54939.738    338.19375    67.651813    405.84557    15378.471 
    7550    9.5379607    4995.9078    57377.241    322.24011     80.84737    403.08748     15376.81 
    7600    9.6011266    4976.1737    58143.253    320.96724    77.792778    398.76002    15375.149 
    7650    9.6653881    4916.7735    55547.461    317.13588    75.116891    392.25277    15373.488 
    7700    9.7308398    4871.2883    53905.121    314.20206    70.473238    384.67529    15371.827 
    7750    9.7962533    4630.5824    55999.574    298.67633    78.866693    377.54302    15370.166 
    7800    9.8622983    4682.0719    54684.226    301.99744    73.411808    375.40925    15368.505 
    7850     9.927297    4819.4505    54703.045    310.85848    73.456488    384.31496    15366.845 
    7900    9.9930496    4985.0326    58686.138    321.53865    79.687703    401.22635    15365.184 
    7950    10.058596    5051.8307    60593.887    325.84718    86.981242    412.82843    15363.524 
    8000    10.125476    5371.3616    56366.077    346.45718    71.662696    418.11988    15361.864 
    8050      10.1869    5180.6538    58618.538    334.15638     80.40083    414.55721    15360.204 
    8100    10.248293    5022.2098    57800.124    323.93661    80.401416    404.33803    15358.544 
    8150    10.310885    4882.7101    56932.117    314.93877    79.064159    394.00293    15356.884 
    8200    10.373521    4873.6906     55560.46      314.357    75.030624    389.38763    15355.224 
    8250    10.436843     4883.878    54994.104     315.0141    72.981171    387.99527    15353.565 
    8300    10.500233    4798.8911    56918.181    309.53237    80.247586    389.77996    15351.905 
    8350    10.563447    5029.7981    56393.044    324.42606    74.765253    399.19131    15350.246 
    8400    10.628524    5253.0103    59422.781    338.82343    81.327562    420.15099    15348.586 
    8450    10.692467    5433.9351     61109.56    350.49323    83.549467     434.0427    15346.927 
    8500    10.756768    5410.3438    60992.589    348.97157    82.589946    431.56152    15345.268 
    8550    10.821913      5330.35    58525.981     343.8119     76.68452    420.49642    15343.609 
    8600    10.886113    5092.3909    58773.567    328.46335    80.495972    408.95932    15341.951 
    8650    10.951153    4969.5821    58341.721    320.54208    81.411386    401.95347    15340.292 
    8700    11.016246    5020.8117    56040.754    323.84643    73.902057    397.74849    15338.633 
    8750    11.080524    4828.9853    58331.669    311.47347    83.659676    395.13315    15336.975 
    8800    11.145714    4948.6264    56609.595    319.19042    75.660628    394.85105    15335.317 
    8850     11.20966    5017.4337    55217.974    323.62855    71.793063    395.42161    15333.658 
    8900    11.275702    5008.7832    56404.796    323.07058    75.070461    398.14104        15332 
    8950     11.34041    5165.3756    56488.137    333.17092    71.508115    404.67904    15330.342 
    9000    11.407208    5202.7295    57614.374    335.58028    76.910737    412.49102    15328.684 
    9050     11.47066     5316.688    58032.496     342.9307     73.78654    416.71724    15327.027 
    9100    11.530967    5223.3594     56978.95    336.91092    75.237058    412.14798    15325.369 
    9150    11.594652      4873.27    59582.305    314.32987    83.990951    398.32082    15323.712 
    9200    11.656889    4758.8079    57130.079    306.94697    80.007915    386.95489    15322.054 
    9250    11.720006    4743.9398    55452.608    305.98797    78.399041    384.38701    15320.397 
    9300    11.782417    4816.9881    57161.826    310.69965    78.524233    389.22388     15318.74 
    9350    11.846201    4944.8885    58073.707    318.94932    79.335146    398.28447    15317.083 
    9400    11.909367    5032.7334    58583.745    324.61539    83.191027    407.80642    15315.426 
    9450    11.972503    5147.2528    58901.248    332.00199    80.254009      412.256    15313.769 
    9500     12.03501    5087.7424    59447.358    328.16352    83.159205    411.32272    15312.113 
    9550    12.098746    5120.6419    58258.532    330.28556    79.204001    409.48957    15310.456 
    9600    12.163287    5031.7036    59385.942    324.54897    81.801952    406.35092      15308.8 
    9650    12.225896    5051.2284    56980.681    325.80834     76.88426     402.6926    15307.143 
    9700    12.290047    5012.9793    55758.668    323.34124    74.204723    397.54596    15305.487 
    9750    12.354353    4890.4794    55990.909     315.4399    76.075365    391.51526    15303.831 
    9800    12.418687    4747.1191    57153.969    306.19304      80.6454    386.83844    15302.175 
    9850    12.483285    4758.3881    56113.115     306.9199    79.198778    386.11868    15300.519 
    9900     12.54866    4877.8375    56635.447    314.62448    78.096748    392.72123    15298.863 
    9950    12.612909    5165.5381    57349.405     333.1814    73.710584    406.89199    15297.208 
   10000    12.679618    5231.4184    59132.127    337.43074    80.024235    417.45497    15295.552 
   10050    12.741097    5194.0185    60572.833    335.01841    84.537599    419.55601    15293.897 
   10100    12.802988     5320.114    56616.428    343.15167    70.155366    413.30704    15292.242 
   10150    12.865411    5139.5554    54743.335     331.5055    67.122756    398.62826    15290.586 
   10200    12.928658    4897.1363    55374.879    315.86927    72.312369    388.18164    15288.931 
   10250     12.99182    4821.2789    55907.636     310.9764    75.247192     386.2236    15287.277 
   10300    13.055519    4684.6752    59411.696    302.16536    86.912246     389.0776    15285.622 
   10350    13.119794    5016.5015    56088.602    323.56842    72.197635    395.76606    15283.967 
   10400    13.183449    5046.7139    57322.192    325.51715    76.488551     402.0057    15282.313 
   10450    13.246695    5003.3576     58918.81    322.72063    81.859175    404.57981    15280.658 
   10500    13.310367    5107.7217    57194.602     329.4522    74.860768    404.31297    15279.004 
   10550    13.373529    5040.2863    57360.188    325.10256    76.572179    401.67474     15277.35 
   10600    13.437457    4973.8798    57199.101    320.81929    77.489927    398.30922    15275.695 
   10650    13.501342    4806.3314     57942.34    310.01228    79.815389    389.82767    15274.042 
   10700    13.564415     4590.154    57527.719    296.06866    81.900976    377.96964    15272.388 
   10750    13.628848    4580.2931    56781.947    295.43262    81.321721    376.75434    15270.734 
   10800     13.69424    4822.8496    56600.725    311.07772    76.735097    387.81281     15269.08 
   10850    13.758564    5042.6909    57275.709    325.25766    77.167907    402.42556    15267.427 
   10900    13.822666    5159.7858    59022.524    332.81038    77.820024     410.6304    15265.773 
   10950    13.888431    5233.4134    58449.271    337.55942    75.547731    413.10715     15264.12 
   11000    13.954222    5212.6844    57580.229    336.22238    73.769087    409.99146    15262.467 
   11050    14.014736    4879.3427    60764.813    314.72157    87.886148    402.60771    15260.814 
   11100    14.075599    4972.1108    56356.488    320.70519    74.603566    395.30875    15259.161 
   11150    14.137132    4815.5409     55895.96     310.6063    76.645694    387.25199    15257.508 
   11200    14.199076    4675.1103    55666.961    301.54841    76.780396    378.32881    15255.856 
   11250    14.262951    4530.8082    56522.614    292.24081    80.693995    372.93481    15254.203 
   11300    14.327801    4727.1826    55257.812    304.90712    72.919545    377.82667    15252.551 
   11350    14.390611    5119.7499    53983.579    330.22803    65.855821    396.08385    15250.898 
   11400    14.453368    5063.5108    60600.518    326.60056    83.271328    409.87189    15249.246 
   11450    14.518249    5194.1412    59374.509    335.02633    79.874016    414.90035    15247.594 
   11500    14.582202    5066.5574     60307.79    326.79707    85.413306    412.21038    15245.942 
   11550     14.64491    5122.6315    57664.733    330.41389    75.657531    406.07142     15244.29 
   11600    14.710128    5034.8608    55987.456    324.75261    71.316135    396.06875    15242.638 
   11650    14.773319    4809.9405    56177.983    310.24507    76.642595    386.88766    15240.987 
   11700    14.838791    4734.7937    57236.653    305.39804    78.830822    384.22886    15239.335 
   11750    14.904709    4756.5783    58905.015    306.80316    83.403492    390.20665    15237.684 
   11800    14.968381    5165.5211    56860.569    333.18031    73.722885    406.90319    15236.033 
   11850    15.033533    5224.9077    60529.604    337.01079    83.498377    420.50917    15234.382 
   11900    15.098526    5355.7626      59336.5    345.45104    76.479067    421.93011    15232.731 
   11950     15.16451    5170.0648    59814.419    333.47338    82.551478    416.02486     15231.08 
   12000    15.233385    5074.1476    59249.211    327.28665    80.516542    407.80319    15229.429 
   12050    15.296804    5030.7165    57669.192     324.4853    75.519172    400.00447    15227.778 
   12100    15.358768      4840.72    57598.211    312.23037    80.523494    392.75387    15226.128 
   12150    15.420249    4809.7093    57520.466    310.23016    78.884455    389.11461    15224.477 
   12200     15.48316     4864.418    57336.005    313.75891    77.103726    390.86264    15222.827 
   12250    15.546669     5041.827    56388.001    325.20194    72.770852    397.97279    15221.177 
   12300     15.60921    5165.6177    58721.904    333.18654    76.699559     409.8861    15219.526 
   12350    15.672663    5379.8232    58775.351    347.00297     76.14733     423.1503    15217.877 
   12400    15.736092    5276.2235    62851.463     340.3207    87.686069    428.00677    15216.227 
   12450    15.799497    5100.3015    63160.569    328.97359    91.330904    420.30449    15214.577 
   12500    15.863162    4947.8793    58065.854    319.14223    79.178652    398.32089    15212.927 
   12550    15.926177    4833.6406    56709.352    311.77375     75.79042    387.56417    15211.278 
   12600    15.990672    4723.9841    57879.972    304.70081    82.925663    387.62648    15209.628 
   12650    16.055207    4919.7712    56749.966    317.32924    75.983794    393.31303    15207.979 
   12700    16.121765    4944.5077    59857.324    318.92476    82.821415    401.74618     15206.33 
   12750    16.187574    5115.9305    58409.075    329.98167    79.547405    409.52908    15204.681 
   12800    16.251714    5211.9518     58530.86    336.17512     76.04826    412.22338    15203.032 
   12850    16.317189    5101.0659     59676.81    329.02289    81.009816    410.03271    15201.383 
   12900    16.382602    5196.1854    54681.867    335.15818    66.673567    401.83174    15199.735 
   12950    16.450027    4846.8866    55690.539    312.62812    72.060605    384.68873    15198.086 
   13000    16.516785    4742.9037    54465.289    305.92114    68.638664     374.5598    15196.438 
   13050    16.579394    4603.3039    56065.152    296.91684     78.04501    374.96185    15194.789 
   13100     16.64126    4856.4254    54459.195    313.24338    70.106302    383.34968    15193.141 
   13150    16.703794    4886.7837    57644.992    315.20152     77.20182    392.40334    15191.493 
   13200    16.767359    5007.5553    57563.453    322.99139    75.824039    398.81542    15189.845 
   13250    16.830908    5068.7011    56957.117    326.93534    75.202251    402.13759    15188.197 
   13300     16.89478    5019.8989    58573.642    323.78756    79.446884    403.23444    15186.549 
   13350    16.959074    5121.0976    56762.526    330.31495    72.748332    403.06329    15184.902 
   13400     17.02431    5086.5787    56529.662    328.08846    71.958292    400.04675    15183.254 
   13450     17.08775    4947.6619    56595.506    319.12821    73.913655    393.04187    15181.607 
   13500    17.153021    4782.8681    56207.574    308.49888    74.000263    382.49914    15179.959 
   13550    17.217953    4562.5632    55893.232    294.28904    79.127656    373.41669    15178.312 
   13600    17.284607    4691.8605    54265.553    302.62882    71.168989     373.7978    15176.665 
   13650    17.349071    4852.7295    56617.777    313.00499    75.260846    388.26584    15175.018 
   13700    17.413519    4968.5237     60377.67    320.47382    85.564946    406.03876    15173.372 
   13750    17.479293    5121.4483    60072.365    330.33757    83.453137    413.79071    15171.725 
   13800    17.545499    5167.8012    60287.054    333.32738    82.168943    415.49632    15170.078 
   13850    17.611421    5098.1541      61065.9    328.83508    84.614906    413.44999    15168.432 
   13900    17.677541     5064.174    59746.457    326.64334    81.966088    408.60942    15166.785 
   13950    17.743846    4837.7864    60889.728    312.04116     89.14268    401.18384    15165.139 
   14000    17.810072    4863.9725    59398.333    313.73018    81.626571    395.35675    15163.493 
   14050    17.871336    4779.1982    59266.575    308.26217    84.141263    392.40343    15161.847 
   14100    17.933734    4893.9756    57830.487     315.6654    79.580079    395.24548    15160.201 
   14150    17.995644    5035.9552    59646.994     324.8232    81.465273    406.28848    15158.556 
   14200     18.05798    5240.9052    60759.178    338.04264    83.262028    421.30467     15156.91 
   14250    18.120512    5346.7761    61362.491     344.8714    82.895531    427.76693    15155.264 
   14300    18.183958     5342.045    60086.751    344.56624    79.070019    423.63626    15153.619 
   14350    18.248377    5117.9354    59063.952    330.11099    79.788514     409.8995    15151.974 
   14400    18.311959     4830.515    60261.219    311.57214    86.090322    397.66246    15150.329 
   14450     18.37651    4824.2643    59410.395    311.16896    83.355007    394.52397    15148.683 
   14500    18.440507    5023.3612    56590.786    324.01088    72.491759    396.50264    15147.039 
   14550    18.504825    5046.4054    56726.349    325.49724    74.306593    399.80384    15145.394 
   14600    18.569245    5054.7645    58498.932    326.03641    76.689925    402.72634    15143.749 
   14650    18.633808    5131.1944    56954.668    330.96621     73.75573    404.72194    15142.104 
   14700    18.698286    5019.2646    58811.181    323.74664    79.096449    402.84309     15140.46 
   14750    18.764383     4910.558    57798.975    316.73498    79.525491    396.26047    15138.816 
   14800    18.830828    4771.2748    57140.383     307.7511    78.756251    386.50735    15137.171 
   14850    18.897114    4726.5963    56414.844     304.8693    75.056606    379.92591    15135.527 
   14900    18.963845    4753.9224     56003.74    306.63186    75.564571    382.19643    15133.883 
   14950    19.031233    5010.7658    56392.484    323.19847    71.133391    394.33186    15132.239 
   15000    19.101233    5101.0635    58835.645    329.02274    78.455221    407.47796    15130.596 
   15050    19.162566    5317.0137    57854.541     342.9517    71.778467    414.73017    15128.952 
   15100    19.225128    5122.9025    61203.659    330.43137    83.274976    413.70635    15127.309 
   15150    19.288701    5026.4612    60359.821    324.21083    83.858319    408.06915    15125.665 
   15200    19.352212    4897.6348     59775.85    315.90142     85.08311    400.98453    15124.022 
   15250     19.41604    4887.0604    59056.554    315.21937    80.964993    396.18436    15122.379 
   15300    19.480873    4932.1987    56654.877    318.13082      77.2145    395.34532    15120.736 
   15350    19.545825    4880.3091     59992.71     314.7839    82.001279    396.78518    15119.093 
   15400    19.611119    5019.6709    58214.471    323.77285    76.982376    400.75523     15117.45 
   15450    19.675145    4987.2392    59127.046    321.68098    81.142463    402.82344    15115.807 
   15500    19.740289    5106.1976    58150.824    329.35389    74.456743    403.81064    15114.165 
   15550    19.806047    4970.3657    59338.172    320.59262    83.417633    404.01026    15112.522 
   15600    19.871895    5081.8814    57863.488    327.78548    76.400251    404.18573     15110.88 
   15650    19.937648    4866.0035    62747.389    313.86118    89.653645    403.51482    15109.237 
   15700    20.003802     4967.562    60437.927    320.41178    84.842287    405.25407    15107.595 
   15750    20.069804     4996.578    60433.711    322.28334     84.80432    407.08766    15105.953 
   15800    20.136086    4965.4277    60546.393    320.27412    85.822569    406.09669    15104.311 
   15850    20.201811    5043.2724     58120.34    325.29517    77.523641    402.81881     15102.67 
   15900    20.266661    4972.4872     57146.31    320.72946    75.490052    396.21952    15101.028 
   15950    20.334078    4790.9532     58361.23    309.02038    80.818483    389.83886    15099.386 
   16000    20.401344    4748.7476    58619.429    306.29808    81.403314    387.70139    15097.745 
   16050    20.465452    4793.7723      58953.6     309.2022    83.460036    392.66224    15096.104 
   16100    20.528318    5116.7648    58284.087    330.03548    75.525074    405.56056    15094.463 
   16150    20.592035    5208.2735     61381.71    335.93787    82.640472    418.57834    15092.822 
   16200    20.655838     5321.349    60566.053    343.23133    78.706423    421.93776    15091.181 
   16250    20.721546     5087.891    61587.238     328.1731    86.189354    414.36245     15089.54 
   16300     20.78594    5175.7694    56478.337    333.84133    70.027558    403.86889    15087.899 
   16350    20.850769    4899.1881    58984.395    316.00161    80.243499    396.24511    15086.258 
   16400    20.917738    4941.8406    57331.679    318.75273    75.174869     393.9276    15084.618 
   16450    20.982607    4913.6975    57621.623    316.93748    76.800689    393.73817    15082.978 
   16500    21.047213    4919.6935    58882.784    317.32423    78.817428    396.14165    15081.337 
   16550    21.113284    4926.3864    60018.601    317.75592    83.270956    401.02688    15079.697 
   16600    21.179703    4930.1205    62235.461    317.99678    90.619094    408.61587    15078.057 
   16650    21.245397    5222.6915    61638.992    336.86784    83.063413    419.93126    15076.417 
   16700    21.311271    5338.8218    61423.926    344.35834     82.54319    426.90153    15074.777 
   16750    21.377776    5368.4623    60836.377    346.27018     79.51914    425.78932    15073.138 
   16800    21.444144    5139.7832    58326.175    331.52019    75.050844    406.57104    15071.498 
   16850    21.510511    4754.0676    58250.817    306.64123    81.084824    387.72605    15069.859 
   16900    21.576733    4669.1147    58567.218    301.16169     82.24421     383.4059     15068.22 
   16950     21.64361     4848.047    56877.038    312.70297    74.682021    387.38499     15066.58 
   17000    21.710504    5047.1858    56623.508    325.54759     72.07911     397.6267    15064.941 
   17050     21.77236    5118.7668    58976.964    330.16461    76.904079    407.06869    15063.302 
   17100    21.833784    5038.0683      61899.7     324.9595    87.710807     412.6703    15061.663 
   17150    21.896804    5259.7822    58543.347    339.26023    75.778947    415.03917    15060.025 
   17200    21.961619    5138.1084    59979.518    331.41217     79.65668    411.06885    15058.386 
   17250    22.025806    4964.6325    58490.549    320.22283    77.325868     397.5487    15056.748 
   17300     22.08994     4641.451    58141.815    299.37736    83.078386    382.45574    15055.109 
   17350    22.155391    4779.5407    55373.941    308.28426    71.009347    379.29361    15053.471 
   17400    22.220457    4720.9252    57890.134    304.50351     79.21034    383.71385    15051.833 
   17450    22.285172    4837.7894    58375.137    312.04135    79.708803    391.75015    15050.195 
   17500    22.350075    4906.2635    60161.216    316.45798    81.798132    398.25612    15048.557 
   17550    22.414958    5011.7545    58711.039    323.26224    78.623673    401.88591    15046.919 
   17600    22.481805    5025.1761    58909.798    324.12794    79.225528    403.35347    15045.281 
   17650    22.547944    4942.0102    61315.522    318.76367    85.782016    404.54569    15043.644 
   17700    22.614458    5131.8343    58232.351    331.00748    76.778739    407.78622    15042.006 
   17750    22.681801    5122.9414    59958.059    330.43388     80.04129    410.47517    15040.369 
   17800    22.746724    5093.3423    60002.732    328.52472    82.041003    410.56572    15038.732 
   17850     22.81214    4922.2045    62192.995    317.48619    89.169429    406.65562    15037.095 
   17900     22.87734    5036.3698    57636.456    324.84994    74.260636    399.11058    15035.458 
   17950    22.942758    4832.5354    57858.212    311.70246    79.400109    391.10257    15033.821 
   18000    23.010937    4835.9723    57239.708    311.92414    75.571085    387.49523    15032.184 
   18050    23.072476    4871.7229    56842.478    314.23009    75.113703    389.34379    15030.548 
   18100    23.133943    5049.2701    57580.007    325.68202    73.103185    398.78521    15028.911 
   18150    23.195927    5206.6022    59612.656    335.83007    77.016448    412.84652    15027.275 
   18200    23.258822    5230.7386    61194.533    337.38689    83.065733    420.45262    15025.638 
   18250     23.32306    5269.2857     60917.27    339.87321     79.84229     419.7155    15024.002 
   18300    23.386974    5028.9615    61392.495     324.3721    86.659827    411.03193    15022.366 
   18350     23.45113    4892.1053    61253.969    315.54476    86.436554    401.98132     15020.73 
   18400    23.514564    4906.7523    59756.246    316.48951    82.959154    399.44866    15019.095 
   18450    23.578433    4940.0392    59837.149    318.63654    81.815568    400.45211    15017.459 
   18500    23.642803     4995.477    59137.052    322.21232    80.154939    402.36726    15015.823 
   18550    23.707805    4955.8716    61201.362    319.65775    85.013258      404.671    15014.188 
   18600    23.772711    5061.6018    59262.264    326.47743    79.216757    405.69418    15012.552 
   18650    23.837547    5041.8578    59806.645    325.20393    79.735091    404.93902    15010.917 
   18700    23.902924    4987.7873    59749.619    321.71633    80.819143    402.53547    15009.282 
   18750    23.969498    4969.4257    58888.904      320.532    77.823824    398.35582    15007.647 
   18800    24.035134    4946.3715    57492.756    319.04498    74.914447    393.95943    15006.012 
   18850    24.100446    4980.8372    55083.202    321.26805     68.33046    389.59851    15004.378 
   18900    24.165739    4748.1363    58387.663    306.25865    82.110103    388.36875    15002.743 
   18950    24.231505    5015.3296    56536.967    323.49283     71.14014    394.63297    15001.108 
   19000    24.298637    5139.4258    58508.514    331.49714    73.684617    405.18176    14999.474 
   19050     24.36239     5234.648    59931.586    337.63905    76.759305    414.39835     14997.84 
   19100    24.425024    5265.0465    60393.446    339.59977    78.792953    418.39273    14996.206 
   19150    24.487217    5058.9183    61991.953    326.30434    88.226105    414.53045    14994.571 
   19200    24.551603    4816.8442    63517.081    310.69036    93.298177    403.98854    14992.938 
   19250       24.616    4761.7763    60039.617    307.13844    83.453983    390.59242    14991.304 
   19300    24.681168     4705.847     56995.59    303.53095    78.305294    381.83625     14989.67 
   19350    24.750995    4647.4614    59863.497    299.76504    83.055895    382.82093    14988.036 
   19400    24.816741    5022.4058    57480.263    323.94925     74.62722    398.57647    14986.403 
   19450    24.881099    5312.0349    59668.979    342.63057    74.664313    417.29488     14984.77 
   19500     24.94847    5338.7447    59855.864    344.35337    75.982485    420.33586    14983.136 
   19550    25.013718    5177.9141    60514.893    333.97966    81.112181    415.09184    14981.503 
   19600    25.078603    5130.6598    58795.782    330.93172      74.6761    405.60782     14979.87 
   19650    25.143383    4917.2656    58006.158    317.16762    78.125581     395.2932    14978.237 
   19700    25.208548    4757.0125    59307.613    306.83117    82.063459    388.89463    14976.605 
   19750    25.274085    4737.5518    58500.506    305.57594    82.773823    388.34977    14974.972 
   19800    25.339842    4944.9323     58759.69    318.95215    76.492346    395.44449    14973.339 
   19850    25.405697    4968.0488    61065.879    320.44318     86.92575    407.36893    14971.707 
   19900    25.472464     5236.725    62226.418    337.77302    81.772114    419.54513    14970.075 
   19950    25.538034    5235.6013    62247.277    337.70054    85.424582    423.12512    14968.442 
   20000    25.608774    5120.2857    62892.499    330.26258    89.131739    419.39432     14966.81 
   20050    25.672061    5083.4524    61598.012    327.88681     86.27112    414.15793    14965.178 
   20100    25.732637    5127.4536    60147.519    330.72492     79.33131    410.05623    14963.547 
   20150    25.794632    4977.1754    61444.922    321.03186    85.471504    406.50336    14961.915 
   20200    25.857674    4958.4854    60020.699    319.82633    83.988023    403.81436    14960.283 
   20250     25.92051    4839.6206     61802.11    312.15946    89.444305    401.60376    14958.652 
   20300    25.985138    4796.6243    62216.029    309.38617    92.503627    401.88979     14957.02 
   20350    26.048894    5081.7076    60522.928    327.77427    79.167159    406.94143    14955.389 
   20400    26.112821    5231.0754    60500.316    337.40861    80.053332    417.46194    14953.758 
   20450    26.178399    5248.7464    64423.928    338.54841    89.885482    428.43389    14952.127 
   20500    26.242992    5478.8085     61654.81     353.3876    79.147511    432.53511    14950.496 
   20550    26.308252    5210.6123     61850.67    336.08873    84.668206    420.75693    14948.865 
   20600    26.373486    4968.1379    60701.305    320.44893    81.547407    401.99634    14947.235 
   20650    26.438277    4841.1806    58969.356    312.26008    80.067197    392.32728    14945.604 
   20700    26.504048    4910.3604    56820.085    316.72223    73.555751    390.27798    14943.974 
   20750    26.569289    4875.3867    59477.543     314.4664    78.736066    393.20247    14942.343 
   20800    26.635285    4847.7866    61418.689    312.68617    87.539533    400.22571    14940.713 
   20850     26.70072     5067.554    60796.883    326.86135    82.985472    409.84682    14939.083 
   20900    26.766313    5285.6103      60647.3    340.92616    77.416913    418.34307    14937.453 
   20950    26.830858    5064.6928    63502.552     326.6768    93.358948    420.03575    14935.823 
   21000    26.898017    5151.8943     62832.78    332.30137    83.699992    416.00136    14934.194 
   21050    26.962141    4890.7857    59945.688    315.45965    84.677892    400.13755    14932.564 
   21100    27.025208    4627.4279    60150.284    298.47286    82.543894    381.01675    14930.934 
   21150    27.088378    4714.2261    56162.959    304.07141    73.804997    377.87641    14929.305 
   21200    27.152805    4686.5021    58189.378    302.28319    81.175399    383.45859    14927.676 
   21250    27.217371    4827.4139    60456.258    311.37212    83.412184     394.7843    14926.047 
   21300     27.28131    5154.1806    57788.912    332.44884    73.688532    406.13737    14924.418 
   21350    27.346891    5089.9668    61610.203      328.307    83.220119    411.52711    14922.789 
   21400    27.413359    5133.0992     60710.89    331.08907    80.809681    411.89875     14921.16 
   21450    27.479048    5102.6507    58250.769    329.12511    76.496259    405.62137    14919.531 
   21500    27.543916      4917.99    59520.976    317.21435    78.626326    395.84068    14917.903 
   21550    27.608743    4761.6879    59933.167    307.13274    81.457616    388.59036    14916.274 
   21600    27.674132    4942.6514    55027.142    318.80503    69.340237    388.14527    14914.646 
   21650    27.740076    4736.0207     62350.98    305.47718    88.331787    393.80897    14913.018 
   21700    27.805008    5185.5379    60506.717     334.4714    80.114483    414.58589     14911.39 
   21750    27.870748    5168.9656    66066.827    333.40248    96.395429    429.79791    14909.762 
   21800    27.936568    5313.5044    63819.005    342.72535    88.300582    431.02593    14908.134 
   21850    28.002609     5083.741    65705.101    327.90542    94.538771    422.44419    14906.506 
   21900    28.068771    4950.6366    63251.447    319.32008    94.123584    413.44367    14904.878 
   21950    28.134862    5049.3986    60781.895    325.69031    80.974384    406.66469    14903.251 
   22000    28.202298    4984.6743    59081.962    321.51554    79.293429    400.80897    14901.623 
   22050     28.26714    5056.6491    56206.719    326.15797    70.084211    396.24218    14899.996 
   22100    28.330529    4871.4389    59819.067    314.21177     78.21964    392.43141    14898.369 
   22150    28.394878    4821.6247    59102.492    310.99871    81.405238    392.40395    14896.742 
   22200    28.459896    4854.8033    60476.296    313.13876    85.093881    398.23264    14895.115 
   22250    28.527018    5247.7371    61894.121    338.48331    79.602273    418.08558    14893.488 
   22300    28.592616    5375.5081     64377.73    346.72464    87.427783    434.15242    14891.861 
   22350    28.658331    5442.1025     61759.25    351.02003    82.939164     433.9592    14890.235 
   22400    28.723683    5139.5762     63546.63    331.50684    90.943411    422.45025    14888.608 
   22450    28.789968    5097.1002    60542.937     328.7671    81.995652    410.76276    14886.982 
   22500    28.856736    4954.9564    61130.309    319.59871    83.386573    402.98528    14885.356 
   22550    28.925177    4932.1156    61818.511    318.12546    80.613215    398.73868     14883.73 
   22600    28.991149    4832.9849    60708.683    311.73145    85.794192    397.52565    14882.104 
   22650    29.058839    5023.2446    57659.865    324.00336    76.624145     400.6275    14880.478 
   22700    29.126156    4891.9574    61361.911    315.53523    89.263177     404.7984    14878.852 
   22750    29.194142    5106.8662    61184.919    329.39702    83.953206    413.35023    14877.226 
   22800    29.260467    5345.0078    63106.137    344.75734    81.527434    426.28478    14875.601 
   22850    29.330848    5400.7735    65139.667    348.35428    85.331755    433.68603    14873.975 
   22900    29.398938    5305.3526    64451.928    342.19956     87.07891    429.27847     14872.35 
   22950      29.4651    5139.6907    60343.703    331.51423    80.497772      412.012    14870.725 
   23000    29.533899    4867.0662    61341.704    313.92973    83.146447    397.07617      14869.1 
   23050    29.599611    4817.1176        60863      310.708    83.118783    393.82678    14867.475 
   23100    29.662163     4992.545    58772.784    322.02321    75.086543    397.10975     14865.85 
   23150     29.72493    4993.0076    60460.817    322.05305    80.750186    402.80323    14864.225 
   23200    29.789647    5044.8314    61223.628    325.39572    84.079399    409.47512    14862.601 
   23250    29.857914    5069.8461     63460.81    327.00919    89.098197    416.10739    14860.976 
   23300    29.922548    5379.0653    59621.005    346.95408    75.722796    422.67688    14859.352 
   23350    29.987907     5228.931    62180.203     337.2703    86.158627    423.42892    14857.728 
   23400    30.053374    4949.5884    64844.122    319.25247    92.251963    411.50443    14856.103 
   23450    30.119852    4835.8006    59723.965    311.91307    82.193505    394.10657    14854.479 
   23500    30.185661    4701.6031    59198.147    303.25722    83.311505    386.56873    14852.855 
   23550    30.252045    4778.0702    58158.547    308.18941    80.649664    388.83907    14851.232 
   23600    30.318032    4946.3222     60522.77     319.0418    79.922548    398.96435    14849.608 
   23650    30.384324    5048.0392    60975.686    325.60263    83.494416    409.09705    14847.984 
   23700    30.452064     5063.799    62657.002    326.61915    87.262228    413.88138    14846.361 
   23750    30.518769    5229.4032    59725.557    337.30076    77.100887    414.40164    14844.738 
   23800    30.584425    5174.8831    59277.833    333.78417    77.183518    410.96768    14843.114 
   23850    30.652482    4970.0308    62166.324    320.57102    84.710752    405.28177    14841.491 
   23900    30.719714    5008.9788    58999.993     323.0832    78.111307    401.19451    14839.868 
   23950    30.787777    4996.5425    58200.453    322.28105     75.47641    397.75746    14838.246 
   24000    30.857866    4784.1896     61475.79    308.58412    86.042209    394.62633    14836.623 
   24050    30.921577    4896.8488    59154.105    315.85072    79.121966    394.97269        14835 
   24100     30.98376    5039.2449     59637.99    325.03539    76.818097    401.85349    14833.378 
   24150    31.046679    4992.9235    63334.738    322.04762    87.633493    409.68111    14831.755 
   24200    31.109879    5135.5562     61981.86    331.24755    84.723176    415.97072    14830.133 
   24250    31.173577    5147.6112    62197.731     332.0251    85.026133    417.05124    14828.511 
   24300    31.237375    4983.2684    65266.119    321.42486    92.588854    414.01372    14826.889 
   24350    31.300192    4968.5891     62470.92    320.47803     88.34425    408.82228    14825.267 
   24400    31.366854    4944.3221    62119.262    318.91279     83.65403    402.56682    14823.645 
   24450    31.432315    4772.5984    61287.129    307.83648    88.215875    396.05235    14822.023 
   24500    31.497208    4876.3274    59040.745    314.52708    78.263949    392.79103    14820.402 
   24550    31.562298    4735.5102    61764.441    305.44426     89.06631    394.51057     14818.78 
   24600    31.628759    5062.5168    59780.961    326.53645    79.600939    406.13739    14817.159 
   24650     31.69413    5127.3463    65633.562      330.718    91.686751    422.40475    14815.538 
   24700     31.75981    5328.8303    63508.007    343.71388    87.580084    431.29397    14813.917 
   24750    31.825379    5393.8844      62204.7    347.90992    81.905435    429.81536    14812.296 
   24800    31.890796    5259.6258    62204.113    339.25014    81.410459     420.6606    14810.675 
   24850    31.956765    5061.7755    60926.221    326.48863     83.95507     410.4437    14809.054 
   24900    32.022661    5048.0316    59836.565    325.60214    78.615636    404.21777    14807.433 
   24950     32.08732    4945.2143    61203.506    318.97034    81.725906    400.69625    14805.813 
   25000    32.156517     4972.604     59452.93      320.737    79.183508    399.92051    14804.192 
   25050     32.22052    5071.5205    58116.592     327.1172    73.711213    400.82841    14802.572 
   25100    32.284237    4971.8197    61577.685    320.68641    81.548213    402.23463    14800.952 
   25150      32.3496    4960.8547    61584.972    319.97916    84.993308    404.97247    14799.332 
   25200    32.414306     5164.713    61582.629    333.12818    78.710754    411.83894    14797.712 
   25250    32.478437    5183.5148    63257.119    334.34092    86.992598    421.33351    14796.092 
   25300    32.542922    5319.6279    63032.681    343.12032    82.485983    425.60631    14794.472 
   25350    32.608495    5193.0094    62259.734    334.95333    85.199505    420.15283    14792.853 
   25400    32.673912    5033.8562    60614.252    324.68781    81.614617    406.30243    14791.233 
   25450     32.73923    4701.3639    63744.236    303.24179    91.087658    394.32945    14789.614 
   25500    32.804877    4758.9066    60314.351    306.95334    84.368368    391.32171    14787.995 
   25550    32.872033    4909.7423    59036.646    316.68237    79.440492    396.12286    14786.375 
   25600    32.937495    4987.9832    62107.116    321.72897     82.35019    404.07916    14784.756 
   25650    33.003482    5035.8438    62086.283    324.81602    86.178365    410.99438    14783.138 
   25700    33.069473    5181.0231    61334.605     334.1802    80.581891    414.76209    14781.519 
   25750    33.137113     5128.237    62715.922    330.77545    81.920667    412.69612      14779.9 
   25800    33.203922     4858.601    60784.788    313.38371    85.855617    399.23933    14778.282 
   25850     33.27041    4610.3003    58909.879    297.36812    81.566454    378.93457    14776.663 
   25900    33.336828    4556.6179    60058.542    293.90556    81.813851    375.71941    14775.045 
   25950    33.403657    4650.9264    59966.148    299.98853    84.913112    384.90164    14773.427 
   26000    33.471149     4856.326    61164.199    313.23697    85.962473    399.19945    14771.808 
   26050    33.533486    5045.1154    62324.161    325.41404    84.183137    409.59718    14770.191 
   26100    33.597739    5001.6447    63555.269    322.61014    91.675419    414.28556    14768.573 
   26150    33.661974     4948.608      66451.9    319.18924     95.89906     415.0883    14766.955 
   26200     33.72738    5135.5998    60939.846    331.25036    81.702649    412.95301    14765.337 
   26250    33.792249    4864.1459    64840.141    313.74136     92.56829    406.30965     14763.72 
   26300    33.858056    4987.6752    58630.618     321.7091    77.091562    398.80066    14762.102 
   26350    33.924133    4664.0119    61405.957    300.83255    87.866741    388.69929    14760.485 
   26400    33.990811    4831.5453      56027.4     311.6386     71.17866    382.81726    14758.868 
   26450    34.056663    4628.5503    59842.254    298.54525    84.307655    382.85291    14757.251 
   26500    34.125406    4929.1661    59652.492    317.93522    77.480641    395.41586    14755.634 
   26550    34.193573    5034.4121    63034.463    324.72367    88.816484    413.54015    14754.017 
   26600    34.260523    5242.8769     63817.48    338.16982    83.328884     421.4987      14752.4 
   26650    34.327435    5069.2954    65188.151    326.97367    93.120728     420.0944    14750.784 
   26700    34.395096     5128.604    61766.315    330.79912    82.285306    413.08443    14749.167 
   26750    34.462996    4958.6916    61248.093    319.83964    82.186361      402.026    14747.551 
   26800     34.53038    4867.3053    59917.711    313.94515    81.080659     395.0258    14745.935 
   26850    34.597864    4898.4862    60048.873    315.95634    77.502982    393.45932    14744.319 
   26900    34.665577    4941.5279    58359.974    318.73256    76.194643     394.9272    14742.703 
   26950    34.734407    4818.9148    62095.964    310.82392    87.342727    398.16665    14741.087 
   27000    34.802183    5093.5555    60671.233    328.53847    76.058135     404.5966    14739.471 
   27050    34.865689    4965.1825    64544.536    320.25831    90.815108    411.07341    14737.855 
   27100    34.929729    5138.0724    65141.946    331.40984    91.719469    423.12931     14736.24 
   27150    34.993315    5558.9994     66685.95    358.55998    88.588092    447.14807    14734.624 
   27200    35.059841    5535.1459    68141.493    357.02141    96.285498    453.30691    14733.009 
   27250    35.124641    5608.4361    62289.265    361.74869    78.464412     440.2131    14731.394 
   27300    35.191479    5295.2905    62076.404    341.55054    78.499706    420.05025    14729.779 
   27350    35.258161       5005.1    62429.893    322.83301    85.732654    408.56567    14728.164 
   27400    35.325318    4864.2261    62502.892    313.74653    88.435815    402.18235    14726.549 
   27450    35.393531    4880.6558    62186.343    314.80627    84.593218    399.39948    14724.934 
   27500    35.459575    4889.0407    62137.459    315.34709    84.681522    400.02862     14723.32 
   27550    35.526013    5093.6667     59255.54    328.54564    75.532784    404.07842    14721.705 
   27600    35.592996    5018.9178    63498.689    323.72427    86.288725      410.013    14720.091 
   27650    35.659615    5230.3807     61690.99     337.3638    80.979531    418.34333    14718.477 
   27700    35.726108    5266.7251    63210.539    339.70805     84.16524    423.87329    14716.863 
   27750    35.792172    5153.3104    66184.965    332.39271    92.143007    424.53572    14715.249 
   27800    35.857302    5163.9138    61707.043    333.07664    81.890206    414.96684    14713.635 
   27850    35.923366    4904.0011    60286.947    316.31205    78.861967    395.17402    14712.021 
   27900    35.989795    4754.1969    58665.211    306.64956    78.801288    385.45085    14710.407 
   27950    36.057091    4844.9402    57878.166    312.50258    73.147009    385.64959    14708.794 
   28000    36.124896     4855.859    59092.566    313.20685    77.211857    390.41871     14707.18 
   28050    36.189042    4944.3046    61213.637    318.91167    81.219038     400.1307    14705.567 
   28100    36.253258    5077.2101    61845.447    327.48418    83.281875    410.76605    14703.954 
   28150    36.318328    5232.1579    61322.691    337.47844    78.219233    415.69767     14702.34 
   28200    36.382008    5121.4557    62193.752    330.33806    83.557186    413.89524    14700.728 
   28250     36.44679    5013.5361    63118.729    323.37715    85.151104    408.52826    14699.115 
   28300    36.511183    5042.0015    60054.568    325.21319    78.611893    403.82508    14697.502 
   28350    36.576294    4924.3455    62684.743    317.62429    83.112674    400.73696    14695.889 
   28400    36.641887    5077.5701    58279.222     327.5074    73.066676    400.57408    14694.277 
   28450    36.707625    5042.2968    59221.383    325.23224    75.644647    400.87689    14692.664 
   28500    36.774133    4949.0394    62247.368    319.21706    81.806111    401.02317    14691.052 
   28550    36.840522    4988.0938    60956.959     321.7361    81.195442    402.93155     14689.44 
   28600    36.907437    5005.0575     61870.93    322.83027    82.739334    405.56961    14687.828 
   28650    36.974495    5048.8263     61758.62     325.6534    81.813058    407.46645    14686.216 
   28700    37.042554    5178.8876    59374.215    334.04246    73.916938    407.95939    14684.604 
   28750    37.110404    4978.5019    63305.899    321.11741    84.918563    406.03598    14682.992 
   28800    37.178395    4873.1294    61224.867    314.32081    84.602806    398.92361    14681.381 
   28850    37.246664    4799.7007    60705.063     309.5846    79.368546    388.95314    14679.769 
   28900     37.31468    4727.2372    58880.943    304.91064    79.502987    384.41363    14678.158 
   28950    37.382452    4743.5469    61048.693    305.96263    82.979811    388.94244    14676.547 
   29000    37.451252    4925.6018    61682.032    317.70532    83.701193    401.40651    14674.936 
   29050    37.514233    5247.6301    60716.035     338.4764    76.087916    414.56432    14673.325 
   29100    37.577963    5356.7249    60141.878    345.51311    74.529843    420.04295    14671.714 
   29150    37.642936    5138.0274    62593.363    331.40694    84.598255     416.0052    14670.103 
   29200    37.706433    5079.3762    61574.679    327.62389    80.217212     407.8411    14668.492 
   29250    37.770841    4957.0615    60656.023    319.73449    79.630892    399.36538    14666.882 
   29300    37.835964    4849.5885    61439.883     312.8024    82.906916    395.70931    14665.271 
   29350       37.902    4841.2271    62767.555    312.26308    85.419076    397.68215    14663.661 
   29400    37.967666     4965.493    61189.387    320.27834     82.52341    402.80175    14662.051 
   29450    38.032119    5042.4517    61449.875    325.24223    81.092347    406.33458    14660.441 
   29500    38.098314    5083.4646    61494.457    327.88759    79.836577    407.72417    14658.831 
   29550    38.164846    4986.2777    63114.266    321.61896    86.521379    408.14034    14657.221 
   29600    38.231183    5049.0117    62902.646    325.66535      82.2967    407.96205    14655.611 
   29650    38.297325    4997.7407    61969.697    322.35834    84.355743    406.71408    14654.002 
   29700    38.365983    4801.9914     65015.37    309.73235    95.565844    405.29819    14652.392 
   29750    38.434902     5065.399    61169.688    326.72235    80.391925    407.11428    14650.783 
   29800     38.50195    5068.2252    63347.098    326.90464     85.28031    412.18495    14649.173 
   29850     38.57021    5156.1516    63896.514    332.57597    85.438278    418.01425    14647.564 
   29900    38.636884    5187.4133    63399.018    334.59237    85.822172    420.41454    14645.955 
   29950    38.704347    5105.7198    64972.158    329.32307    88.574189    417.89726    14644.346 
   30000    38.774149    5029.4312    63065.426     324.4024    85.445761    409.84816    14642.737 
   30050    38.837909     4898.098    62296.386     315.9313    82.966178    398.89748    14641.129 
   30100    38.902267    4784.9899    60762.489    308.63574    82.592937    391.22868     14639.52 
   30150    38.967652    4753.9061    61664.937     306.6308    84.163027    390.79383    14637.912 
   30200      39.0333    4700.6867    64738.577    303.19811    96.217398    399.41551    14636.303 
   30250    39.098029    5043.4143    64280.027    325.30432    89.817168    415.12148    14634.695 
   30300    39.164498    4988.0776    69407.539    321.73506    102.28366    424.01872    14633.087 
   30350    39.231402    5173.8495    65180.315     333.7175    91.317231    425.03473    14631.479 
   30400    39.297844     5251.331    63079.284    338.71512    82.438868    421.15399    14629.871 
   30450    39.364591    5137.2922    62763.245    331.35952    81.610284    412.96981    14628.263 
   30500    39.431719    4997.2163    61675.282    322.32451    82.709966    405.03448    14626.656 
   30550    39.499434    4796.7705     64074.24    309.39559    91.138052    400.53365    14625.048 
   30600    39.566322    4877.4391    62470.326    314.59878    86.116011    400.71479    14623.441 
   30650    39.633719    5002.2315    61055.875      322.648     80.42145    403.06945    14621.834 
   30700    39.700261    5059.4808    62401.909    326.34062      80.2355    406.57612    14620.226 
   30750    39.769047    5162.5942    61786.575    332.99152    79.523534    412.51505    14618.619 
   30800    39.836978     5278.305    62904.624    340.45496     81.27523    421.73019    14617.012 
   30850      39.9055    5245.8947    65499.609    338.36447     87.53404    425.89851    14615.406 
   30900    39.973737    5076.0746    65875.831    327.41094    93.893986    421.30492    14613.799 
   30950    40.043838    4984.0951    64636.536    321.47819    88.359667    409.83785    14612.192 
   31000    40.113327    4819.1579    62730.208     310.8396    87.938988    398.77859    14610.586 
   31050    40.177897    4861.0765    61729.291    313.54338    80.583169    394.12655    14608.979 
   31100    40.240857    4774.0391    61607.349     307.9294    87.291117    395.22051    14607.373 
   31150    40.305564    4921.8161    62687.723    317.46114    85.271508    402.73264    14605.767 
   31200    40.370558    5101.6323    63963.223    329.05943    86.306575      415.366    14604.161 
   31250    40.436211    5223.8431    66312.379    336.94213    91.497704    428.43983    14602.555 
   31300    40.502671    5352.7736    66113.822    345.25825    87.936774    433.19502    14600.949 
   31350     40.56906    5101.3797    67280.702    329.04314    97.245979    426.28912    14599.344 
   31400    40.638189    4968.2224    63185.194    320.45438    84.574402    405.02878    14597.738 
   31450    40.708145      4745.05    60937.553    306.05958    85.562655    391.62223    14596.133 
   31500    40.775615    4752.4213    62922.315    306.53504    85.639753    392.17479    14594.527 
   31550    40.842442    4944.0878    60072.681    318.89768     78.58757    397.48525    14592.922 
   31600    40.909465    4934.4777    64572.939    318.27782    87.411377     405.6892    14591.317 
   31650    40.978142    5126.0238    61836.535     330.6327    82.941047    413.57374    14589.712 
   31700    41.046446    5092.7924    64917.765    328.48925    89.056329    417.54557    14588.107 
   31750    41.115279    5070.4291    64659.348     327.0468      90.0649     417.1117    14586.502 
   31800    41.183308    4931.4928    65564.794    318.08529    93.352908     411.4382    14584.898 
   31850    41.254074    4974.8922    60960.875    320.88459    81.135881    402.02047    14583.293 
   31900    41.321907    4790.2229    61695.897    308.97327    81.605978    390.57925    14581.689 
   31950    41.388857    4750.2594    59148.799    306.39559    77.973157    384.36875    14580.084 
   32000    41.458257    4543.2861    64352.639    293.04564    92.758291    385.80393     14578.48 
   32050     41.52171    4943.9711    62309.052    318.89015    84.220039    403.11019    14576.876 
   32100    41.584749    5301.3614    62630.597    341.94212    77.737015    419.67913    14575.272 
   32150    41.648807    5205.4561    63945.765    335.75615    86.014964    421.77111    14573.668 
   32200    41.714847    5042.6744    66449.336     325.2566    93.020678    418.27727    14572.065 
   32250    41.780595    4998.8063    64265.391    322.42706     89.03138    411.45844    14570.461 
   32300    41.848217    4935.8184    63734.287    318.36429    85.321985    403.68628    14568.858 
   32350    41.914513    4906.9103    60747.128     316.4997    80.617759    397.11746    14567.254 
   32400    41.981315    4837.9206    61555.858    312.04981    80.777477    392.82729    14565.651 
   32450    42.048384    4888.0589    59272.733    315.28377    76.895875    392.17965    14564.048 
   32500    42.115316    4912.4294    62491.177    316.85569    81.092496    397.94819    14562.445 
   32550    42.182762      5175.95    61987.272    333.85298    80.546475    414.39946    14560.842 
   32600     42.25115    5256.9388    66074.182    339.07682    88.081857    427.15868    14559.239 
   32650    42.318471    5207.0251     66529.98    335.85735    92.335111    428.19246    14557.637 
   32700    42.385173    5180.0866    65128.077    334.11979    88.175997    422.29579    14556.034 
   32750    42.453544    5138.1796    61650.106    331.41676    80.193835    411.61059    14554.432 
   32800    42.522931    4849.2079    64866.634    312.77785    88.201228    400.97908    14552.829 
   32850    42.591172    4817.6721    62179.362    310.74376    86.581998    397.32576    14551.227 
   32900    42.661127    4914.6042    62133.522    316.99596    81.628397    398.62436    14549.625 
   32950    42.728435    4993.7266    61050.214    322.09942    79.894222    401.99365    14548.023 
   33000    42.799778     5031.494    62646.354    324.53545    81.266824    405.80227    14546.421 
   33050    42.865675    4989.5734    64139.024    321.83154    86.857516    408.68905    14544.819 
   33100    42.929638    5147.2669      62611.1     332.0029    79.485077    411.48797    14543.218 
   33150    42.995445     5019.689    63934.333    323.77402    88.178973    411.95299    14541.616 
   33200     43.06168    4971.0343      65285.3    320.63575    90.064741    410.70049    14540.015 
   33250    43.126884    5046.3353    62388.329    325.49273    81.254396    406.74712    14538.414 
   33300    43.192131    4892.1315    61753.857    315.54646    82.582342     398.1288    14536.812 
   33350    43.258515    4790.4584    61675.555    308.98846    82.155258    391.14371    14535.211 
   33400    43.323259    4734.8957    61874.197    305.40462    85.003593    390.40821     14533.61 
   33450    43.389382    4850.8992    61900.395    312.88694    84.433053    397.31999     14532.01 
   33500    43.456353    4967.1064    65398.645     320.3824    89.248417    409.63082    14530.409 
   33550    43.522302    5087.5594    67194.814    328.15172    92.692235    420.84395    14528.808 
   33600     43.58935    5157.6201    66513.977    332.67068    93.469588    426.14027    14527.208 
   33650    43.655958    5168.5002        66949    333.37246    91.626743    424.99921    14525.607 
   33700    43.722661    5105.7025     65380.31    329.32196    89.781849    419.10381    14524.007 
   33750    43.790048    4855.5094    65593.015     313.1843    95.579286    408.76358    14522.407 
   33800    43.857689    4912.7793    62669.016    316.87825    83.100499    399.97875    14520.807 
   33850    43.925609    4917.7219    60178.472    317.19706    77.270711    394.46777    14519.207 
   33900    43.992113    4653.7426    62590.768    300.17018    88.799652    388.96983    14517.607 
   33950    44.060322    4706.0192    61289.206    303.54206    81.173962    384.71603    14516.008 
   34000    44.129295     4754.945    61552.252    306.69782    82.631817    389.32963    14514.408 
   34050    44.194453    4882.9951     64293.61    314.95715    87.825776    402.78293    14512.809 
   34100    44.260379    5239.4076    62435.021    337.94604    78.363387    416.30943    14511.209 
   34150    44.325835    5159.0717    65163.022    332.76431    89.687982     422.4523     14509.61 
   34200    44.391677    5211.6964    65763.102    336.15865    87.066105    423.22476    14508.011 
   34250    44.457348    5146.3533     64075.63    331.94397     85.48392    417.42789    14506.412 
   34300    44.524108    4985.8174    62656.691    321.58928    83.957545    405.54682    14504.813 
   34350    44.589935    4925.6517     60587.37    317.70854     76.69555    394.40409    14503.215 
   34400    44.656206    4836.0423    59995.128    311.92866    76.960637     388.8893    14501.616 
   34450    44.723318    4779.8903    60061.157     308.3068     79.76055    388.06735    14500.018 
   34500    44.790135    4863.3098    60759.976    313.68743    79.272281    392.95971    14498.419 
   34550    44.856234    5074.2183    61388.995     327.2912    77.394118    404.68532    14496.821 
   34600    44.923022    5167.0011    63214.907    333.27577    83.059029     416.3348    14495.223 
   34650    44.990301     5247.064    64519.239    338.43989    82.873299    421.31319    14493.625 
   34700    45.057862    5228.3561    63818.804    337.23322    83.782462    421.01568    14492.027 
   34750    45.124521     5107.469    65592.455     329.4359    88.328811    417.76471    14490.429 
   34800    45.190908    4959.3242    67212.667    319.88044    94.730411    414.61085    14488.831 
   34850    45.259157    5052.3401    64960.447    325.88004    87.988388    413.86843    14487.234 
   34900    45.325837    5062.3083    63962.466      326.523    85.685362    412.20836    14485.636 
   34950    45.394302    5004.9813    64266.753    322.82536    86.141553    408.96691    14484.039 
   35000    45.464092    5006.2315    62765.323      322.906    82.987999      405.894    14482.442 
   35050    45.527547    4898.7285    63673.391    315.97197    86.638418    402.61038    14480.844 
   35100    45.591308    4914.3799    63347.245     316.9815    86.396344    403.37784    14479.247 
   35150    45.657195    4975.7079    64796.174     320.9372    88.794573    409.73177    14477.651 
   35200    45.723454     5035.844    66634.306    324.81603    93.184028    418.00006    14476.054 
   35250    45.789642    5212.3879    65638.279    336.20326    88.904853    425.10811    14474.457 
   35300    45.856192    5217.1337    66928.946    336.50936    90.618219    427.12758    14472.861 
   35350     45.92347    5115.9266    65613.895    329.98142    91.366842    421.34827    14471.264 
   35400    45.990391    4947.5994    64738.816    319.12418    87.560697    406.68488    14469.668 
   35450     46.05822    4761.2882    63291.149    307.10696    87.877283    394.98424    14468.072 
   35500    46.125399    4820.7956    61613.219    310.94523    81.773087    392.71832    14466.476 
   35550    46.190543    4796.2191    63484.737    309.36003    87.494859    396.85489     14464.88 
   35600    46.257149    4959.7492    63753.602    319.90785    84.875745     404.7836    14463.284 
   35650    46.324572    5022.0089     64780.84    323.92365    87.801066    411.72472    14461.688 
   35700    46.393878    4984.5493    66662.679    321.50748    92.887355    414.39483    14460.092 
   35750     46.46227    5044.4861     65368.51    325.37345    88.596863    413.97031    14458.497 
   35800    46.531093    4887.0814    67483.224    315.22072    98.207995    413.42871    14456.902 
   35850    46.600712    4975.9745    66467.339     320.9544    93.086467    414.04087    14455.306 
   35900    46.669473    5015.6004    66125.782     323.5103    90.829019    414.33932    14453.711 
   35950    46.738587    5195.2301    61832.146    335.09656    77.175768    412.27233    14452.116 
   36000    46.809109    4914.6305    64370.697    316.99766    87.775921    404.77358    14450.521 
   36050    46.873686    4793.1186    63149.235    309.16004    84.924902    394.08495    14448.926 
   36100    46.936395    4645.7157    60935.385    299.65244    82.159727    381.81216    14447.332 
   36150    47.001188    4503.8086    61156.595    290.49931    84.999753    375.49907    14445.737 
   36200    47.067081    4563.1322    64104.867    294.32574    88.547868    382.87361    14444.143 
   36250    47.134148     4967.762    62584.418    320.42468    83.134724    403.55941    14442.548 
   36300    47.200496    5129.5257    63457.261    330.85857    82.469444    413.32802    14440.954 
   36350    47.267261    5071.7359    65805.672    327.13108    87.864456    414.99554     14439.36 
   36400    47.334977     5013.184    65216.322    323.35444    89.893894    413.24833    14437.766 
   36450    47.402823    5143.1914    61997.433    331.74002     77.25956    408.99958    14436.172 
   36500    47.472077    5017.4154     61886.87    323.62737    79.037427     402.6648    14434.578 
   36550    47.539367     4790.673     63459.48     309.0023    88.064845    397.06714    14432.985 
   36600    47.606912    4851.3075     62211.69    312.91327    82.925867    395.83914    14431.391 
   36650    47.675672    4835.3736     63842.53    311.88552    87.268659    399.15418    14429.798 
   36700    47.743906    5007.0516    64716.262    322.95889    87.275662    410.23456    14428.204 
   36750    47.812671    5375.9513    63375.899    346.75322    78.535622    425.28885    14426.611 
   36800    47.881242    5395.4171    64696.733    348.00878    81.957408    429.96619    14425.018 
   36850    47.951385    5220.1186    65178.592    336.70189    85.845065    422.54695    14423.425 
   36900    48.019766    4854.8678    67244.915    313.14292    95.938676    409.08159    14421.832 
   36950    48.087647    5025.8604    61796.161    324.17208    77.616936    401.78901    14420.239 
   37000    48.157326    4820.9126     64054.41    310.95278    88.571749    399.52453    14418.647 
   37050    48.222037    4923.9304    63019.714    317.59751    84.506356    402.10387    14417.054 
   37100    48.285867    5093.0064    62469.955    328.50305    79.005598    407.50865    14415.462 
   37150    48.351776    5030.7935    64815.854    324.49027    87.968611    412.45888     14413.87 
   37200    48.416957    5063.2134    65188.175    326.58137    89.453693    416.03507    14412.278 
   37250    48.484021    5170.7944    63290.305    333.52044    82.246377    415.76682    14410.685 
   37300    48.551128    5022.0458    64732.235    323.92603     85.30919    409.23522    14409.094 
   37350    48.618505    4806.6781    62834.587    310.03464    84.815653     394.8503    14407.502 
   37400    48.687926    4589.0043    61245.072    295.99451    82.811537    378.80604     14405.91 
   37450    48.756572    4721.8364    57890.895    304.56229    71.994739    376.55703    14404.318 
[...]
 1540650    204.48028     3047.307    4839467.8    196.55378    3052.9992     3249.553    3059.7205 
 1540700    204.73988    2937.5831    4854582.5    189.47649    3067.7306    3257.2071    3059.7205 
 1540750    204.98555    3003.5887      4875369    193.73391    3077.8733    3271.6072    3059.7205 
 1540800    205.23743    3103.7478    4865926.9    200.19426    3076.6956    3276.8899    3059.7205 
 1540850    205.49047    3067.5116    4869419.1    197.85699    3079.0076    3276.8646    3059.7205 
 1540900    205.75091    3290.5836    4857225.1    212.24531    3061.5296    3273.7749    3059.7205 
 1540950    206.00258    2994.9372    4865788.5    193.17588    3073.7841      3266.96    3059.7205 
 1541000    206.25525    3003.4905    4859262.6    193.72758    3066.0045     3259.732    3059.7205 
 1541050    206.50618     3149.095    4844854.4    203.11919    3052.6183    3255.7375    3059.7205 
 1541100    206.75724    2887.4455    4857489.2    186.24258     3068.141    3254.3836    3059.7205 
 1541150    207.00682    2921.2244    4855845.9    188.42135    3066.9691    3255.3904    3059.7205 
 1541200    207.26094     2970.333    4851731.6    191.58889    3067.5711      3259.16    3059.7205 
 1541250    207.51016    3096.5713    4861531.1    199.73137    3066.5834    3266.3148    3059.7205 
 1541300     207.7754     3119.093    4862838.5    201.18404    3073.9924    3275.1765    3059.7205 
 1541350    208.03274    3171.9455    4877426.3    204.59306    3076.2883    3280.8814    3059.7205 
 1541400    208.30103    3146.3256      4883954    202.94056    3078.9708    3281.9114    3059.7205 
 1541450     208.5766     3184.504    4873482.2    205.40309     3071.801    3277.2041    3059.7205 
 1541500    208.84852     2841.206    4870535.4    183.26009    3081.2957    3264.5558    3059.7205 
 1541550    209.11918    2913.2211    4857605.1    187.90513    3068.2747    3256.1798    3059.7205 
 1541600    209.39641     2990.799      4845296    192.90896    3061.7448    3254.6538    3059.7205 
 1541650    209.68834     3012.113    4848067.4    194.28374     3059.994    3254.2778    3059.7205 
 1541700    209.95743    3008.4764    4844573.1    194.04917    3061.6966    3255.7458    3059.7205 
 1541750    210.20749    2966.1616    4851567.7    191.31984    3067.3232    3258.6431    3059.7205 
 1541800    210.46033    3000.7526    4853407.7    193.55098    3069.9655    3263.5165    3059.7205 
 1541850    210.71459    3167.0064      4859663    204.27449    3063.9497    3268.2242    3059.7205 
 1541900    210.96931    3011.4412    4881544.7     194.2404    3078.3513    3272.5917    3059.7205 
 1541950    211.22257    3156.7261    4859768.8     203.6114    3070.4845    3274.0959    3059.7205 
 1542000    211.47351    2972.7228    4884161.4    191.74303    3079.8911    3271.6342    3059.7205 
 1542050    211.72292    3083.7668    4854096.8    198.90546    3063.1992    3262.1047    3059.7205 
 1542100    211.96751    2873.9786    4857348.6    185.37396      3066.47     3251.844    3059.7205 
 1542150    212.21392    2805.3227    4854528.4    180.94559    3067.5087    3248.4542    3059.7205 
 1542200     212.4635    3054.1964    4841270.5    196.99815    3051.1366    3248.1348    3059.7205 
 1542250    212.71203    3017.2238    4848677.5    194.61338    3055.4123    3250.0257    3059.7205 
 1542300    212.96479    2963.9383    4857481.3    191.17643    3063.2751    3254.4515    3059.7205 
 1542350    213.21231    3011.0496      4859788    194.21514    3066.7635    3260.9786    3059.7205 
 1542400    213.46467    3084.8575    4863568.8    198.97582    3068.2142    3267.1901    3059.7205 
 1542450    213.73898    3052.7923    4864182.3    196.90758    3072.2379    3269.1454    3059.7205 
 1542500    214.00616    2893.6461      4882042    186.64252    3082.2917    3268.9342    3059.7205 
 1542550    214.27915    3060.5729    4875341.1    197.40944    3070.0703    3267.4797    3059.7205 
 1542600    214.55394    2992.6675    4876925.4    193.02948    3072.8355    3265.8649    3059.7205 
 1542650    214.81384    2969.9443    4875210.6    191.56382    3072.8611    3264.4249    3059.7205 
 1542700    215.06713    3059.6443      4859409    197.34955    3064.9899    3262.3395    3059.7205 
 1542750    215.31827    2834.5572    4857084.6    182.83125    3077.1806    3260.0119    3059.7205 
 1542800    215.57016    3114.2438    4833280.7    200.87126    3056.8342    3257.7054    3059.7205 
 1542850    215.82236     2959.173    4837425.5    190.86906    3062.6568    3253.5259    3059.7205 
 1542900    216.07242    2805.3131    4850554.5    180.94498    3064.8773    3245.8223    3059.7205 
 1542950     216.3235    2762.0134    4844679.7    178.15211    3061.3701    3239.5222    3059.7205 
 1543000    216.57126    2886.3005    4834094.8    186.16873    3052.3827    3238.5514    3059.7205 
 1543050    216.82162    2804.5038    4844546.9    180.89278    3062.3911    3243.2839    3059.7205 
 1543100    217.06554    2853.1573    4858228.4    184.03097    3068.6297    3252.6606    3059.7205 
 1543150     217.3109    2986.8623    4859797.5    192.65505    3067.1465    3259.8015    3059.7205 
 1543200    217.56089    2976.7882    4862572.7    192.00526    3070.3963    3262.4016    3059.7205 
 1543250    217.81288    2989.3954    4865781.9    192.81843    3071.0948    3263.9132    3059.7205 
 1543300    218.06568     3011.919    4861118.8    194.27122    3070.3391    3264.6103    3059.7205 
 1543350    218.31916    2908.5737    4859420.1    187.60537    3077.3068    3264.9121    3059.7205 
 1543400    218.57126     2929.623    4862907.4    188.96306    3076.8382    3265.8013    3059.7205 
 1543450    218.82217    3031.7756    4857696.5    195.55199    3071.4477    3266.9997    3059.7205 
 1543500    219.06807    3076.9773    4857489.5    198.46753    3069.5065     3267.974    3059.7205 
 1543550    219.31794    3073.6987    4859892.6    198.25606     3069.709    3267.9651    3059.7205 
 1543600     219.5662    3044.7741      4868972     196.3904    3069.9566     3266.347    3059.7205 
 1543650    219.81957    2993.5629    4855774.1    193.08724    3070.1522    3263.2395    3059.7205 
 1543700    220.07065    3061.4261    4843604.7    197.46447    3060.9855      3258.45    3059.7205 
 1543750    220.31729    2856.1947    4848219.7    184.22688    3069.9541    3254.1809    3059.7205 
 1543800    220.56951    2881.0217    4862044.8    185.82824    3065.5124    3251.3407    3059.7205 
 1543850    220.82557    2820.3458    4859724.6     181.9146    3070.0306    3251.9452    3059.7205 
 1543900    221.07816    2750.7021    4873445.8    177.42252    3080.2493    3257.6718    3059.7205 
 1543950    221.33032    3037.5751    4873419.8    195.92606    3072.0752    3268.0013    3059.7205 
 1544000      221.582    2979.4509    4876153.6    192.17701    3082.4678    3274.6448    3059.7205 
 1544050    221.83339    3140.7513    4878660.3    202.58101     3073.585     3276.166    3059.7205 
 1544100    222.07429    3020.3051    4879289.7    194.81213    3080.1589     3274.971    3059.7205 
 1544150    222.32351    3021.4782    4873319.9     194.8878    3076.8724    3271.7602    3059.7205 
 1544200    222.57335    2934.8434    4872155.2    189.29978    3078.3713    3267.6711    3059.7205 
 1544250    222.82321     2946.029    4875139.9    190.02126    3072.4576    3262.4789    3059.7205 
 1544300    223.06487     2936.396    4857737.1    189.39993    3068.4629    3257.8629    3059.7205 
 1544350    223.31412    2974.6648    4855067.5     191.8683    3063.0802    3254.9485    3059.7205 
 1544400    223.56424     2974.137    4857438.7    191.83425    3062.2706    3254.1049    3059.7205 
 1544450    223.80942    2972.1816    4855035.2    191.70813    3063.1173    3254.8254    3059.7205 
 1544500    224.06293    3031.4472    4856480.8     195.5308     3060.284    3255.8148    3059.7205 
 1544550    224.30916     2984.184    4857054.3    192.48229    3064.1556    3256.6378    3059.7205 
 1544600    224.55616    3011.0681    4858509.4    194.21634    3063.6263    3257.8426    3059.7205 
 1544650    224.81013    2999.8788    4858863.5    193.49462    3066.2683    3259.7629    3059.7205 
 1544700    225.06432    2914.0341    4872122.5    187.95757    3073.5156    3261.4731    3059.7205 
 1544750    225.31526    3065.1814    4863568.2    197.70669    3065.0684     3262.775    3059.7205 
 1544800    225.56489     2944.863      4866216    189.94606     3074.065    3264.0111    3059.7205 
 1544850    225.81257    3053.4674    4858441.6    196.95113    3069.7614    3266.7125    3059.7205 
 1544900    226.06332     3056.676    4868388.4    197.15808    3072.3521    3269.5102    3059.7205 
 1544950    226.31169    3040.1737    4883455.7    196.09367    3075.3731    3271.4668    3059.7205 
 1545000    226.56446    3037.8694    4861928.3    195.94504    3074.6116    3270.5566    3059.7205 
 1545050    226.81287    3198.3459    4853687.6    206.29591     3058.652    3264.9479    3059.7205 
 1545100    227.05677    2958.5607    4859330.9    190.82957    3065.3992    3256.2288    3059.7205 
 1545150    227.30153     2918.347      4841521    188.23576    3061.8198    3250.0556    3059.7205 
 1545200    227.54765    2832.6894    4863943.2    182.71076     3065.236    3247.9467    3059.7205 
 1545250    227.80063    2931.6929    4841472.8    189.09657    3060.7527    3249.8493    3059.7205 
 1545300    228.04564    2989.8171    4850025.9    192.84563    3061.4254    3254.2711    3059.7205 
 1545350    228.29376    2878.2577      4870131    185.64996    3075.5602    3261.2102    3059.7205 
 1545400    228.54425    2962.6361      4871361    191.09243    3075.9443    3267.0367    3059.7205 
 1545450    228.79795    2950.8886    4881969.6    190.33471    3078.9374    3269.2721    3059.7205 
 1545500    229.04483    3145.2404    4875471.1    202.87056    3066.2351    3269.1056    3059.7205 
 1545550    229.29774    2955.9785    4867327.1    190.66301    3077.0752    3267.7382    3059.7205 
 1545600    229.54993    3005.9404    4869466.6     193.8856    3072.3008    3266.1864    3059.7205 
 1545650    229.82319     2751.468    4875773.3    177.47192    3086.0501     3263.522    3059.7205 
 1545700    230.08294    2908.4188    4853488.2    187.59538    3073.3821    3260.9775    3059.7205 
 1545750    230.35344    2915.8198    4860969.2    188.07275     3069.281    3257.3538    3059.7205 
 1545800    230.62103    3026.8517    4845683.9    195.23439    3057.7775    3253.0119    3059.7205 
 1545850      230.874    2928.1465    4849566.2    188.86783    3060.0573    3248.9251    3059.7205 
 1545900    231.12549     2745.783    4847127.2    177.10523    3067.7258     3244.831    3059.7205 
 1545950    231.36846    2874.5408    4845258.7    185.41022    3056.1095    3241.5197    3059.7205 
 1546000    231.61582    2844.2197    4842051.1    183.45448    3057.9423    3241.3967    3059.7205 
 1546050    231.86558    2839.3982    4847174.1    183.14349    3063.6106    3246.7541    3059.7205 
 1546100    232.10534    3014.9625      4855123    194.46753    3062.0788    3256.5463    3059.7205 
 1546150    232.35382    2946.2874    4865579.1    190.03793    3074.0491     3264.087    3059.7205 
 1546200    232.59958    3006.5532    4866642.6    193.92513    3074.2068    3268.1319    3059.7205 
 1546250    232.85332    3011.9537      4880731    194.27346    3075.2035     3269.477    3059.7205 
 1546300    233.10555    2996.9884    4879605.9    193.30819    3075.6628     3268.971    3059.7205 
 1546350    233.35733    3000.8478    4866833.2    193.55712    3072.9933    3266.5504    3059.7205 
 1546400    233.60866    3016.1501    4853283.5    194.54413    3065.4271    3259.9713    3059.7205 
 1546450    233.86009    2933.5917      4860992    189.21905    3061.6975    3250.9165    3059.7205 
 1546500     234.1111    2814.6865    4851659.6    181.54956    3064.1516    3245.7012    3059.7205 
 1546550    234.35497    2865.6302    4845770.1    184.83547     3059.947    3244.7825    3059.7205 
 1546600    234.60695      2811.66    4860585.1    181.35435      3065.78    3247.1344    3059.7205 
 1546650    234.85807    2830.5454    4867644.3    182.57248    3068.6957    3251.2682    3059.7205 
 1546700    235.10641    2852.5929      4864188    183.99456    3071.2804     3255.275    3059.7205 
 1546750    235.35702    2853.7257    4864995.1    184.06763    3075.0097    3259.0773    3059.7205 
 1546800    235.60769    3105.4124      4848964    200.30163    3062.1187    3262.4204    3059.7205 
 1546850    235.85425    3119.1887    4865597.5     201.1902    3063.5808     3264.771    3059.7205 
 1546900    236.10481    3102.3629    4859406.3    200.10493    3066.6555    3266.7604    3059.7205 
 1546950    236.36084    3015.3796    4861368.1    194.49443    3073.2901    3267.7845    3059.7205 
 1547000    236.60855    3047.6296    4863700.6    196.57459    3070.4348    3267.0094    3059.7205 
 1547050    236.85894    2985.6778    4865949.9    192.57864    3070.4268    3263.0055    3059.7205 
 1547100    237.10252    2954.9259    4857046.9    190.59512    3065.3033    3255.8985    3059.7205 
 1547150    237.34861    2842.0841    4842935.2    183.31673    3065.6261    3248.9429    3059.7205 
 1547200    237.60054    2936.0187    4842951.2    189.37559    3056.5092    3245.8847    3059.7205 
 1547250    237.84863    2832.6934    4851509.7    182.71102    3063.1485    3245.8595    3059.7205 
 1547300    238.10258    2920.7927    4841778.7     188.3935    3062.6528    3251.0463    3059.7205 
 1547350    238.35558     2865.271    4864106.7    184.81231    3075.7921    3260.6044    3059.7205 
 1547400    238.60684    3154.2219    4862758.8    203.44988     3064.648    3268.0979    3059.7205 
 1547450    238.85995    3012.6632    4879654.9    194.31923    3075.9814    3270.3007    3059.7205 
 1547500     239.1078    2984.8918    4878406.5    192.52795    3077.7022    3270.2301    3059.7205 
 1547550    239.35809    2974.4859    4868832.1    191.85676     3077.064    3268.9207    3059.7205 
 1547600    239.60295    2926.0584    4882613.8    188.73314    3078.0745    3266.8077    3059.7205 
 1547650    239.85482    2955.5423    4860600.5    190.63488    3070.7379    3261.3728    3059.7205 
 1547700    240.10607    2898.9528    4870077.9    186.98481    3067.4667    3254.4515    3059.7205 
 1547750    240.35298     2903.162    4851173.3    187.25631    3061.5976    3248.8539    3059.7205 
 1547800     240.6049    2886.9071    4839060.6    186.20785     3059.137    3245.3449    3059.7205 
 1547850    240.85193    2932.1158      4841456    189.12385    3055.3686    3244.4925    3059.7205 
 1547900    241.10247    3003.9292    4833460.8    193.75587    3055.1928    3248.9487    3059.7205 
 1547950    241.34949    2843.2378    4859435.3    183.39115    3078.6702    3262.0613    3059.7205 
 1548000    241.60295     3024.999    4873207.9     195.1149    3075.1582    3270.2731    3059.7205 
 1548050    241.84811    3101.3758    4868137.9    200.04126    3072.8932    3272.9345    3059.7205 
 1548100     242.0909    3112.5692    4856661.9    200.76324     3071.761    3272.5242    3059.7205 
 1548150    242.34111    3079.8912    4874310.9    198.65549    3069.4598    3268.1153    3059.7205 
 1548200    242.58951    3037.0939    4849642.7    195.89502    3065.3712    3261.2663    3059.7205 
 1548250    242.84305    2914.9941    4867284.9    188.01949    3067.3128    3255.3323    3059.7205 
 1548300    243.08934    2883.9434    4851995.9    186.01669    3065.0068    3251.0235    3059.7205 
 1548350    243.33646    2814.5535    4847821.9    181.54099    3068.6075    3250.1485    3059.7205 
 1548400    243.58247    2927.8439    4858852.8    188.84831    3064.3395    3253.1878    3059.7205 
 1548450    243.83597    2892.3496      4872563     186.5589    3072.9144    3259.4733    3059.7205 
 1548500    244.08667    3037.7767      4866445    195.93907    3072.4584    3268.3974    3059.7205 
 1548550    244.33676    3067.5108    4877075.4    197.85694    3075.9518    3273.8087    3059.7205 
 1548600    244.58237    3109.7736    4867268.2    200.58292     3074.425    3275.0079    3059.7205 
 1548650    244.83122    3031.7335    4873425.3    195.54927    3078.2774    3273.8267    3059.7205 
 1548700     245.0774    3049.2365    4875603.9    196.67823    3074.1292    3270.8075    3059.7205 
 1548750    245.32269    3066.5962    4847271.7    197.79794    3068.2168    3266.0147    3059.7205 
 1548800    245.58561    3037.4903    4870010.7    195.92059     3064.109    3260.0296    3059.7205 
 1548850    245.85408    2883.3937    4859489.8    185.98123    3068.4204    3254.4016    3059.7205 
 1548900     246.1165      2806.74    4850170.3    181.03701    3069.8672    3250.9042    3059.7205 
 1548950    246.39645    2969.8309    4850436.2    191.55651    3059.2407    3250.7972    3059.7205 
 1549000      246.674    2947.6097    4852987.1    190.12322    3064.2053    3254.3286    3059.7205 
 1549050    246.92576     2906.873    4865926.3    187.49567    3074.2143      3261.71    3059.7205 
 1549100    247.17266    3037.0144    4866959.2    195.88989    3075.9472     3271.837    3059.7205 
 1549150    247.41662    3179.7429      4871968      205.096    3073.9072    3279.0032    3059.7205 
 1549200    247.66632    3154.5739      4879711    203.47258    3076.2572    3279.7298    3059.7205 
 1549250     247.9174    3110.3581      4871853    200.62063    3076.0489    3276.6695    3059.7205 
 1549300    248.17371    3103.9383    4862003.8    200.20654     3071.381    3271.5876    3059.7205 
 1549350    248.42595    3089.1242      4858324    199.25102     3066.319    3265.5701    3059.7205 
 1549400    248.67247    2957.1466    4867123.5    190.73836     3070.228    3260.9663    3059.7205 
 1549450    248.92674    2940.4626    4865752.6    189.66223    3068.6632    3258.3254    3059.7205 
 1549500    249.17862    2908.2208    4849164.7    187.58261    3069.9862    3257.5688    3059.7205 
 1549550    249.43077    2997.0376    4854483.6    193.31136    3064.6341    3257.9454    3059.7205 
 1549600    249.68067     2995.327    4860745.7    193.20102    3065.2651    3258.4661    3059.7205 
 1549650    249.93101    3046.4176    4863792.1    196.49641    3063.4428    3259.9393    3059.7205 
 1549700     250.1743    3043.5835    4863424.6    196.31361    3066.0919    3262.4055    3059.7205 
 1549750    250.42239     2965.327    4870411.1      191.266    3074.8548    3266.1208    3059.7205 
 1549800    250.66868    3131.2646    4864781.6    201.96911    3066.5612    3268.5303    3059.7205 
 1549850    250.92062     3065.939    4872861.5    197.75556    3072.1024    3269.8579    3059.7205 
 1549900    251.18133    3047.6645    4867688.6    196.57684    3071.6598    3268.2366    3059.7205 
 1549950    251.42651     2986.494    4860177.1    192.63129    3071.7446    3264.3759    3059.7205 
 1550000    251.67817    2979.2561      4864337    192.16444    3065.7888    3257.9533    3059.7205 
 1550050    251.92968    2901.3262    4852839.1    187.13789     3064.806    3251.9438    3059.7205 
 1550100    252.16986    2888.3809    4852871.3    186.30292    3061.4054    3247.7083    3059.7205 
 1550150    252.41138    2977.0043    4846164.2     192.0192    3054.9621    3246.9813    3059.7205 
 1550200    252.65813    2878.1973    4855404.7    185.64606    3064.5986    3250.2447    3059.7205 
 1550250    252.90884     3081.548    4859438.6    198.76235    3063.1594    3261.9218    3059.7205 
 1550300    253.15113     3081.198    4871918.6    198.73978    3073.2637    3272.0034    3059.7205 
 1550350    253.39884    3001.1045    4893348.8    193.57368    3080.9032    3274.4769    3059.7205 
 1550400       253.65    3092.5878    4875489.4    199.47442    3073.6751    3273.1495    3059.7205 
 1550450    253.90056    3036.6459    4872173.4    195.86613     3074.396    3270.2621    3059.7205 
 1550500    254.15071    2966.8928    4866968.6    191.36699     3074.