LAMMPS (20 Nov 2019)
#INIT: cooling rate 100K/ps
units metal
dimension 3
atom_style charge #atomic
boundary p p p
neighbor 2.0 bin
neigh_modify delay 1 #check yes one 1000 page 2000


#SYS DEF
region box block 0 25 0 25 0 25
create_box 2 box
Created orthogonal box = (0 0 0) to (25 25 25)
  1 by 1 by 1 MPI processor grid

create_atoms 1 random 200 123 box
Created 200 atoms
  create_atoms CPU = 0.0003135 secs
create_atoms 2 random 300 234 box
Created 300 atoms
  create_atoms CPU = 1.51e-05 secs

mass 1 26.9815
mass 2 15.9994
set atom 1 charge 1.4175
  1 settings made for charge
set atom 2 charge -0.9450
  1 settings made for charge

#potential config
pair_style born/coul/long 10.0
pair_coeff 1 1 0.00294848 0.068 1.5704 0.14561856 1
pair_coeff 1 2 0.00745792 0.172 2.6067 0.35836056 1
pair_coeff 2 2 0.01196736 0.276 3.643 	 0.88190881 1

kspace_style pppm 1.0e-4


#SIMULATION
dump dmp all atom 5000 cr100_dump.lammpstrj


#RUN
#minimize energy so there is no overlap
timestep 0.0005
minimize 1.0e-4 1.0e-6 10000 100000
WARNING: Using 'neigh_modify every 1 delay 0 check yes' setting during minimization (src/min.cpp:178)
PPPM initialization ...
WARNING: System is not charge neutral, net charge = 0.4725 (src/kspace.cpp:304)
  using 12-bit tables for long-range coulomb (src/kspace.cpp:323)
  G vector (1/distance) = 0.154195
  grid = 4 4 4
  stencil order = 5
  estimated absolute RMS force accuracy = 0.00124323
  estimated relative force accuracy = 8.63378e-05
  using double precision FFTW3
  3d grid and FFT values/proc = 729 64
Neighbor list info ...
  update every 1 steps, delay 0 steps, check yes
  max neighbors/atom: 2000, page size: 100000
  master list distance cutoff = 12
  ghost atom cutoff = 12
  binsize = 6, bins = 5 5 5
  1 neighbor lists, perpetual/occasional/extra = 1 0 0
  (1) pair born/coul/long, perpetual
      attributes: half, newton on
      pair build: half/bin/atomonly/newton
      stencil: half/bin/3d/newton
      bin: standard
Per MPI rank memory allocation (min/avg/max) = 5.899 | 5.899 | 5.899 Mbytes
Step Temp E_pair E_mol TotEng Press 
       0            0     18605477            0     18605477 5.0990897e+09 
     119            0   -6.0779787            0   -6.0779787    4658.5338 
Loop time of 0.420207 on 1 procs for 119 steps with 500 atoms

99.5% CPU use with 1 MPI tasks x no OpenMP threads

Minimization stats:
  Stopping criterion = energy tolerance
  Energy initial, next-to-last, final = 
          18605477.445     -6.07738284229     -6.07797870776
  Force two-norm initial, final = 1.7073e+09 0.371193
  Force max component initial, final = 1.01993e+09 0.0644745
  Final line search alpha, max atom move = 0.0395001 0.00254675
  Iterations, force evaluations = 119 273

MPI task timing breakdown:
Section |  min time  |  avg time  |  max time  |%varavg| %total
---------------------------------------------------------------
Pair    | 0.37042    | 0.37042    | 0.37042    |   0.0 | 88.15
Kspace  | 0.036006   | 0.036006   | 0.036006   |   0.0 |  8.57
Neigh   | 0.0071838  | 0.0071838  | 0.0071838  |   0.0 |  1.71
Comm    | 0.0026789  | 0.0026789  | 0.0026789  |   0.0 |  0.64
Output  | 0          | 0          | 0          |   0.0 |  0.00
Modify  | 0          | 0          | 0          |   0.0 |  0.00
Other   |            | 0.003922   |            |       |  0.93

Nlocal:    500 ave 500 max 500 min
Histogram: 1 0 0 0 0 0 0 0 0 0
Nghost:    3228 ave 3228 max 3228 min
Histogram: 1 0 0 0 0 0 0 0 0 0
Neighs:    57684 ave 57684 max 57684 min
Histogram: 1 0 0 0 0 0 0 0 0 0

Total # of neighbors = 57684
Ave neighs/atom = 115.368
Neighbor list builds = 7
Dangerous builds = 0


#heating
timestep 0.001 #picoseconds
velocity all create 5000 87287

fix 1 all nvt temp 5000 5000 0.1
fix 2 all deform 1 x final 0 15.70866 y final 0 14.29263 z final 0 18.1387987 units box
thermo 50
thermo_style custom step cpu temp press ke pe etotal vol
thermo_modify lost ignore
run 500000
PPPM initialization ...
  using 12-bit tables for long-range coulomb (src/kspace.cpp:323)
  G vector (1/distance) = 0.154195
  grid = 4 4 4
  stencil order = 5
  estimated absolute RMS force accuracy = 0.00124323
  estimated relative force accuracy = 8.63378e-05
  using double precision FFTW3
  3d grid and FFT values/proc = 729 64
Per MPI rank memory allocation (min/avg/max) = 4.774 | 4.774 | 4.774 Mbytes
Step CPU Temp Press KinEng PotEng TotEng Volume 
     119            0         5000     26704.76    322.50406   -6.0779787    316.42608        15625 
     150  0.036610688    4099.7208    43462.111    264.43532    52.731428    317.16675    15623.959 
     200  0.097905069    4240.3866     47634.88    273.50838    60.895177    334.40356    15622.281 
     250   0.15901045    4489.2474    49040.374    289.56011    62.064683    351.62479    15620.602 
     300   0.22031513    4653.9399    51767.357     300.1829    68.492011    368.67492    15618.924 
     350   0.28286251     4818.345    55086.107    310.78716    76.704355    387.49152    15617.245 
     400   0.34581539    5062.0927    56036.507    326.50909    76.685425    403.19451    15615.567 
     450   0.40954427    5104.6079    58485.045    329.25136    83.940664    413.19202    15613.889 
     500   0.47330765    5315.9906    56114.458    342.88571    72.623376    415.50909    15612.211 
     550   0.53747223    5336.0439    52837.861    344.17917    63.709517    407.88868    15610.534 
     600   0.60410701    4907.6381    55816.761    316.54665    77.316246    393.86289    15608.856 
     650   0.67247779    4812.6857    53910.916    310.42214    73.699204    384.12134    15607.178 
     700   0.73913817    4744.0327    53804.238    305.99396     73.92316    379.91712    15605.501 
     750   0.80431555    4808.4852    53833.192     310.1512    71.861523    382.01273    15603.824 
     800   0.86938213    4964.7428    53500.715    320.22994     70.53517    390.76511    15602.146 
     850   0.93608311     5088.361    55390.058    328.20342    73.035923    401.23934    15600.469 
     900    1.0017916    5186.1095     55521.72    334.50828    72.571795    407.08007    15598.792 
     950    1.0692772    5128.8827    56026.027     330.8171    75.397203     406.2143    15597.116 
    1000    1.1345839    5092.1426    54755.801    328.44733    71.596058    400.04339    15595.439 
    1050    1.1960675    4847.6728     54001.79    312.67883    74.339004    387.01783    15593.762 
    1100    1.2584829    4713.0862    52856.415    303.99789    69.411925    373.40982    15592.086 
    1150    1.3199096    4655.8825    52215.379     300.3082    69.384086    369.69229    15590.409 
    1200    1.3809444    4666.6423    54113.932    301.00222    76.174161    377.17638    15588.733 
    1250    1.4437945    4957.1899    55001.939    319.74278    72.919291    392.66207    15587.057 
    1300    1.5066079    4904.0403    58482.645    316.31459    85.026446    401.34103    15585.381 
    1350    1.5701878    5198.5046    53847.891    335.30777    68.707545    404.01531    15583.705 
    1400     1.636541    5058.8391    55736.327    326.29923    74.696856    400.99609    15582.029 
    1450    1.7011655    4985.4875    55688.549    321.56799     74.96599    396.53398    15580.354 
    1500    1.7654415    4920.7258    55454.244    317.39081    76.281173    393.67198    15578.678 
    1550     1.829714    4915.5706    55400.947     317.0583    76.102176    393.16048    15577.003 
    1600    1.8947834    4876.1582    56905.638    314.51617    80.322685    394.83885    15575.327 
    1650    1.9587993    5059.9859    54936.679     326.3732    73.242686    399.61589    15573.652 
    1700    2.0233869    5148.0049    55701.886     332.0505    75.630554    407.68105    15571.977 
    1750    2.0899549     5242.546    57470.445    338.14847    77.125248    415.27372    15570.302 
    1800    2.1543578    5239.4527    56828.575    337.94895    77.547434    415.49639    15568.627 
    1850    2.2185717    4999.7337    57151.356    322.48688    80.815709    403.30259    15566.953 
    1900    2.2816848    4825.1125    55519.051    311.22367    76.812094    388.03577    15565.278 
    1950    2.3457979    4771.9211    53678.177    307.79278    73.799786    381.59257    15563.604 
    2000    2.4108984    4795.9425    54437.355    309.34219    74.135919     383.4781    15561.929 
    2050    2.4719471    4906.0557    54668.069    316.44458    73.873425    390.31801    15560.255 
    2100    2.5324556     4995.177    56013.688    322.19298     76.15388    398.34686    15558.581 
    2150    2.5942054    5137.9799    56683.344    331.40388    73.342669    404.74655    15556.907 
    2200     2.656682    5083.9611    56109.655    327.91962    78.085875    406.00549    15555.233 
    2250    2.7191752     5094.083    56770.567    328.57249    74.831828    403.40432    15553.559 
    2300    2.7831482    4970.8681    55764.335    320.62503     78.06236    398.68739    15551.886 
    2350    2.8471215    5056.2074    54889.986    326.12948    70.577975    396.70746    15550.212 
    2400    2.9130257    4947.6728     55280.62    319.12891    76.663672    395.79259    15548.539 
    2450    2.9771558    4962.6152    56127.135    320.09271    76.018208    396.11092    15546.865 
    2500    3.0414511    4873.1363    57085.102    314.32125    82.775183    397.09643    15545.192 
    2550    3.1084953    4891.1994    58302.583    315.48633    84.020194    399.50653    15543.519 
    2600    3.1730915     5087.399    56725.189    328.14137    78.487951    406.62932    15541.846 
    2650    3.2389793    5275.3126    58987.914    340.26195    80.436139    420.69809    15540.173 
    2700    3.3044074    5565.7504    58037.225    358.99542    74.672357    433.66778    15538.501 
    2750    3.3701201    5458.2595    59383.897    352.06217    78.930805    430.99298    15536.828 
    2800    3.4352433     5025.142     59563.43    324.12574    88.492731    412.61847    15535.156 
    2850    3.4999995    4974.6922     56287.07    320.87169    78.988769    399.86046    15533.483 
    2900    3.5650596     4998.075    54655.039     322.3799    71.503524    393.88342    15531.811 
    2950    3.6309661    4900.1182    54822.625     316.0616    74.094836    390.15644    15530.139 
    3000     3.697248      4927.07    54310.597    317.80002    71.850983      389.651    15528.467 
    3050    3.7591482    5017.6522      53595.6    323.64264      69.0801    392.72274    15526.795 
    3100    3.8238121    5032.6191    55256.133    324.60802    74.106086     398.7141    15525.123 
    3150     3.885558    5210.0726    55341.515    336.05392    70.351536    406.40545    15523.452 
    3200    3.9503777    5290.5662    55870.678    341.24582     71.95498     413.2008     15521.78 
    3250    4.0135097    5238.4239    57798.911     337.8826    77.952655    415.83525    15520.109 
    3300    4.0770811    5213.2218    56006.817    336.25704    73.507624    409.76466    15518.438 
    3350    4.1408058    4958.1349    55941.037    319.80373     74.04946    393.85319    15516.766 
    3400    4.2271541    4784.4059    53890.952    308.59807     73.76783     382.3659    15515.095 
    3450    4.3091334    4811.4755    53094.846    310.34408    69.273487    379.61757    15513.424 
    3500    4.3955584    4806.3693    54384.966    310.01472    73.191286    383.20601    15511.754 
    3550    4.4768275    4895.7269    55850.434    315.77836    77.154696    392.93306    15510.083 
    3600    4.5435693    5011.0909    57071.027    323.21944    79.587368     402.8068    15508.412 
    3650    4.6124213    5134.1645     56440.67    331.15778    76.640691    407.79847    15506.742 
    3700    4.6836745    5146.6167     56761.57    331.96096    75.559228    407.52018    15505.072 
    3750    4.7517585    5118.2675    55651.355    330.13241    74.486008    404.61842    15503.401 
    3800    4.8173236    4988.6542    57408.068    321.77225    79.920503    401.69275    15501.731 
    3850    4.8820714    4936.4636    57599.433    318.40591    80.477993    398.88391    15500.061 
    3900    4.9476867     4881.675    57192.444      314.872     81.32468    396.19668    15498.391 
    3950    5.0123498    4962.9744    55442.585    320.11588    75.324856    395.44074    15496.722 
    4000    5.0779644    4917.3438    56600.133    317.17267    78.288111    395.46078    15495.052 
    4050    5.1396935    4950.7525    56173.655    319.32756    77.194328    396.52189    15493.383 
    4100    5.2016084    5030.8724    55887.732    324.49536    74.842339     399.3377    15491.713 
    4150    5.2638634    5035.0444     57794.05    324.76445    79.633236    404.39769    15490.044 
    4200    5.3265816    5166.4572    58004.018    333.24069    78.722611     411.9633    15488.375 
    4250    5.3890116    5229.9582    58570.574    337.33655    80.544224    417.88078    15486.706 
    4300    5.4522898    5254.6199     57138.83    338.92725     75.90486    414.83211    15485.037 
    4350    5.5156007    5096.2939    55907.822    328.71509    73.448159    402.16325    15483.368 
    4400    5.5871263    4799.4684    56953.114    309.56961    79.645975    389.21558    15481.699 
    4450    5.6509177    4949.3948    52024.793    319.23998    64.487544    383.72753    15480.031 
    4500    5.7156443    4854.0586    53723.542    313.09072    70.003919    383.09464    15478.362 
    4550    5.7801155    4897.1373     54120.37    315.86934    71.234454    387.10379    15476.694 
    4600    5.8451831    4909.1157    56864.707    316.64195    79.437191    396.07914    15475.026 
    4650    5.9129996    5101.9566    58172.649    329.08035    80.748102    409.82845    15473.358 
    4700    5.9910372    5215.4128    59327.772    336.39836    82.689429    419.08779     15471.69 
    4750    6.0695415     5304.392    57641.276     342.1376    76.658471    418.79607    15470.022 
    4800    6.1415348    5175.7118     58038.31    333.83762    79.463408    413.30102    15468.354 
    4850    6.2066701     5121.098    57534.118    330.31498    77.414579    407.72956    15466.686 
    4900    6.2700227    5018.9592    57133.895    323.72694    77.898333    401.62528    15465.019 
    4950    6.3349683    4997.1349    55575.446    322.31926    73.106774    395.42603    15463.352 
    5000    6.4010051    4914.4781    55249.246    316.98783    72.645164    389.63299    15461.684 
    5050    6.4629072     4797.268    56292.526    309.42768    77.838416     387.2661    15460.017 
    5100     6.525523    4939.7297    55337.348    318.61658     72.81221    391.42879     15458.35 
    5150    6.5875925     5021.752     57132.04    323.90708     78.90734    402.81442    15456.683 
    5200    6.6498692    5386.6838    56179.824    347.44548    70.575222     418.0207    15455.016 
    5250    6.7125454    5494.0097    56738.118    354.36809    70.069332    424.43742     15453.35 
    5300    6.7744885    5249.5788    58360.455    338.60209     79.85094    418.45303    15451.683 
    5350    6.8376647    5129.1678    56452.799    330.83549    73.707878    404.54337    15450.017 
    5400    6.9032999    4909.7053    55557.436    316.67998     76.07957    392.75955     15448.35 
    5450    6.9675082    4965.2024    53981.364    320.25959    70.011257    390.27084    15446.684 
    5500    7.0330618    4930.3241    55193.443    318.00991    72.476299    390.48621    15445.018 
    5550    7.0979822    4983.0047     54694.22    321.40785    71.220134    392.62798    15443.352 
    5600    7.1621547     5043.789    54511.117    325.32849    70.906946    396.23543    15441.686 
    5650    7.2270135    5037.2066    56436.836    324.90392    75.088285     399.9922     15440.02 
    5700    7.2931318     5083.717    56645.444    327.90387     75.81565    403.71952    15438.355 
    5750    7.3590052    5110.3271    57766.073    329.62025    77.533631    407.15388    15436.689 
    5800    7.4246822    5132.1022    56782.132    331.02476    76.961029    407.98579    15435.024 
    5850    7.4892867    5021.8907    57225.396    323.91603    78.544238    402.46027    15433.359 
    5900    7.5566736    4977.6011    54454.783    321.05931    71.328998    392.38831    15431.694 
    5950    7.6244355    4802.1476    54316.853    309.74242    72.133244    381.87567    15430.029 
    6000     7.689505    4769.4363    53542.832    307.63252       68.731    376.36352    15428.364 
    6050     7.749554    4783.0878    53576.878    308.51305    70.459846    378.97289    15426.699 
    6100    7.8104107     4941.133    54585.972    318.70709    72.766879    391.47397    15425.034 
    6150    7.8729142    5157.2312    57063.752     332.6456    74.231881    406.87749     15423.37 
    6200    7.9371528    5225.1955    57091.335    337.02936    74.119898    411.14926    15421.705 
    6250    8.0002816    4960.7254    60298.398    319.97082     89.30357    409.27439    15420.041 
    6300    8.0640108    5048.4347    58553.348    325.62814    80.345073    405.97321    15418.377 
    6350    8.1274596    5035.1245    56705.157    324.76962    75.078102    399.84772    15416.713 
    6400    8.1909895    4934.0788    56041.463    318.25209    75.314679    393.56677    15415.049 
    6450     8.255414    4901.8834    55148.026    316.17546    73.833024    390.00848    15413.385 
    6500    8.3236407    4827.1542    56846.717    311.35537    78.044594    389.39996    15411.721 
    6550    8.3959783    4850.7446    57627.622    312.87697    82.433247    395.31021    15410.057 
    6600    8.4615261    5326.9745    56537.549    343.59418    70.992896    414.58708    15408.394 
    6650    8.5283691    5395.4575    59135.012    348.01139     79.54582    427.55721    15406.731 
    6700    8.5936926     5312.583    60008.257    342.66592    82.282914    424.94884    15405.067 
    6750    8.6581977    5132.2613    59019.221    331.03502    82.488234    413.52326    15403.404 
    6800    8.7245681    4917.6011    59066.212    317.18926    84.381768    401.57103    15401.741 
    6850      8.79037    5037.0358    54622.401     324.8929     69.98521    394.87811    15400.078 
    6900    8.8560924    4785.0347    57940.107    308.63863    83.285951    391.92458    15398.415 
    6950    8.9239132    4883.9462    56973.601     315.0185    79.522558    394.54105    15396.753 
    7000    8.9905038    5021.4031    57720.809    323.88458    77.393768    401.27835     15395.09 
    7050    9.0532931    5324.4713    54187.359    343.43272      64.8796    408.31232    15393.428 
    7100    9.1139722    5186.7028    56993.123    334.54655    75.014262    409.56081    15391.765 
    7150    9.1758806    4949.9381    58821.127    319.27503    81.810362    401.08539    15390.103 
    7200     9.239849     4777.316    54457.133    308.14076    74.103068    382.24383    15388.441 
    7250    9.3028083    4709.5239    52186.289    303.76812    67.483796    371.25191    15386.779 
    7300    9.3665033    4657.0999    53745.134    300.38673     70.68684    371.07357    15385.117 
    7350    9.4303414    4722.9439     55485.96    304.63372    75.991886     380.6256    15383.456 
    7400    9.4940755    4965.9792    55762.148     320.3097    74.060788    394.37048    15381.794 
    7450    9.5591808    5075.9605    56973.776    327.40358    75.423477    402.82705    15380.132 
    7500    9.6237058     5243.248    54939.738    338.19375    67.651813    405.84557    15378.471 
    7550    9.6898478    4995.9078    57377.241    322.24011     80.84737    403.08748     15376.81 
    7600    9.7540899    4976.1737    58143.253    320.96724    77.792778    398.76002    15375.149 
    7650    9.8189431    4916.7735    55547.461    317.13588    75.116891    392.25277    15373.488 
    7700     9.883754    4871.2883    53905.121    314.20206    70.473238    384.67529    15371.827 
    7750    9.9493444    4630.5824    55999.574    298.67633    78.866693    377.54302    15370.166 
    7800    10.015589    4682.0719    54684.226    301.99744    73.411808    375.40925    15368.505 
    7850    10.080292    4819.4505    54703.045    310.85848    73.456488    384.31496    15366.845 
    7900    10.146379    4985.0326    58686.138    321.53865    79.687703    401.22635    15365.184 
    7950    10.211805    5051.8307    60593.887    325.84718    86.981242    412.82843    15363.524 
    8000    10.279619    5371.3616    56366.077    346.45718    71.662696    418.11988    15361.864 
    8050    10.340316    5180.6538    58618.538    334.15638     80.40083    414.55721    15360.204 
    8100    10.401336    5022.2098    57800.124    323.93661    80.401416    404.33803    15358.544 
    8150    10.463282    4882.7101    56932.117    314.93877    79.064159    394.00293    15356.884 
    8200    10.526732    4873.6906     55560.46      314.357    75.030624    389.38763    15355.224 
    8250    10.590353     4883.878    54994.104     315.0141    72.981171    387.99527    15353.565 
    8300    10.653936    4798.8911    56918.181    309.53237    80.247586    389.77996    15351.905 
    8350    10.716972    5029.7981    56393.044    324.42606    74.765253    399.19131    15350.246 
    8400    10.782499    5253.0103    59422.781    338.82343    81.327562    420.15099    15348.586 
    8450    10.845871    5433.9351     61109.56    350.49323    83.549467     434.0427    15346.927 
    8500    10.911202    5410.3438    60992.589    348.97157    82.589946    431.56152    15345.268 
    8550    10.975437      5330.35    58525.981     343.8119     76.68452    420.49642    15343.609 
    8600    11.040861    5092.3909    58773.567    328.46335    80.495972    408.95932    15341.951 
    8650     11.10732    4969.5821    58341.721    320.54208    81.411386    401.95347    15340.292 
    8700    11.173438    5020.8117    56040.754    323.84643    73.902057    397.74849    15338.633 
    8750    11.237886    4828.9853    58331.669    311.47347    83.659676    395.13315    15336.975 
    8800    11.302611    4948.6264    56609.595    319.19042    75.660628    394.85105    15335.317 
    8850    11.367855    5017.4337    55217.974    323.62855    71.793063    395.42161    15333.658 
    8900    11.433902    5008.7832    56404.796    323.07058    75.070461    398.14104        15332 
    8950    11.499574    5165.3756    56488.137    333.17092    71.508115    404.67904    15330.342 
    9000     11.56596    5202.7295    57614.374    335.58028    76.910737    412.49102    15328.684 
    9050    11.628485     5316.688    58032.496     342.9307     73.78654    416.71724    15327.027 
    9100    11.688958    5223.3594     56978.95    336.91092    75.237058    412.14798    15325.369 
    9150    11.752125      4873.27    59582.305    314.32987    83.990951    398.32082    15323.712 
    9200    11.814269    4758.8079    57130.079    306.94697    80.007915    386.95489    15322.054 
    9250    11.877283    4743.9398    55452.608    305.98797    78.399041    384.38701    15320.397 
    9300     11.94189    4816.9881    57161.826    310.69965    78.524233    389.22388     15318.74 
    9350    12.006858    4944.8885    58073.707    318.94932    79.335146    398.28447    15317.083 
    9400    12.071885    5032.7334    58583.745    324.61539    83.191027    407.80642    15315.426 
    9450    12.135921    5147.2528    58901.248    332.00199    80.254009      412.256    15313.769 
    9500    12.199564    5087.7424    59447.358    328.16352    83.159205    411.32272    15312.113 
    9550    12.264388    5120.6419    58258.532    330.28556    79.204001    409.48957    15310.456 
    9600    12.329293    5031.7036    59385.942    324.54897    81.801952    406.35092      15308.8 
    9650    12.392542    5051.2284    56980.681    325.80834     76.88426     402.6926    15307.143 
    9700    12.457333    5012.9793    55758.668    323.34124    74.204723    397.54596    15305.487 
    9750    12.524275    4890.4794    55990.909     315.4399    76.075365    391.51526    15303.831 
    9800    12.588947    4747.1191    57153.969    306.19304      80.6454    386.83844    15302.175 
    9850    12.653731    4758.3881    56113.115     306.9199    79.198778    386.11868    15300.519 
    9900    12.718716    4877.8375    56635.447    314.62448    78.096748    392.72123    15298.863 
    9950    12.784272    5165.5381    57349.405     333.1814    73.710584    406.89199    15297.208 
   10000    12.848657    5231.4184    59132.127    337.43074    80.024235    417.45497    15295.552 
   10050     12.90982    5194.0185    60572.833    335.01841    84.537599    419.55601    15293.897 
   10100    12.970917     5320.114    56616.428    343.15167    70.155366    413.30704    15292.242 
   10150    13.042041    5139.5554    54743.335     331.5055    67.122756    398.62826    15290.586 
   10200    13.105517    4897.1363    55374.879    315.86927    72.312369    388.18164    15288.931 
   10250    13.168245    4821.2789    55907.636     310.9764    75.247192     386.2236    15287.277 
   10300    13.231544    4684.6752    59411.696    302.16536    86.912246     389.0776    15285.622 
   10350    13.297551    5016.5015    56088.602    323.56842    72.197635    395.76606    15283.967 
   10400    13.362588    5046.7139    57322.192    325.51715    76.488551     402.0057    15282.313 
   10450     13.42744    5003.3576     58918.81    322.72063    81.859175    404.57981    15280.658 
   10500    13.492925    5107.7217    57194.602     329.4522    74.860768    404.31297    15279.004 
   10550    13.558852    5040.2863    57360.188    325.10256    76.572179    401.67474     15277.35 
   10600     13.62353    4973.8798    57199.101    320.81929    77.489927    398.30922    15275.695 
   10650    13.688857    4806.3314     57942.34    310.01228    79.815389    389.82767    15274.042 
   10700    13.753787     4590.154    57527.719    296.06866    81.900976    377.96964    15272.388 
   10750    13.819616    4580.2931    56781.947    295.43262    81.321721    376.75434    15270.734 
   10800    13.884561    4822.8496    56600.725    311.07772    76.735097    387.81281     15269.08 
   10850      13.9516    5042.6909    57275.709    325.25766    77.167907    402.42556    15267.427 
   10900    14.018097    5159.7858    59022.524    332.81038    77.820024     410.6304    15265.773 
   10950    14.086453    5233.4134    58449.271    337.55942    75.547731    413.10715     15264.12 
   11000    14.151727    5212.6844    57580.229    336.22238    73.769087    409.99146    15262.467 
   11050    14.212563    4879.3427    60764.813    314.72157    87.886148    402.60771    15260.814 
   11100    14.275175    4972.1108    56356.488    320.70519    74.603566    395.30875    15259.161 
   11150    14.340012    4815.5409     55895.96     310.6063    76.645694    387.25199    15257.508 
   11200    14.405434    4675.1103    55666.961    301.54841    76.780396    378.32881    15255.856 
   11250    14.471377    4530.8082    56522.614    292.24081    80.693995    372.93481    15254.203 
   11300     14.54051    4727.1826    55257.812    304.90712    72.919545    377.82667    15252.551 
   11350    14.606889    5119.7499    53983.579    330.22803    65.855821    396.08385    15250.898 
   11400    14.672023    5063.5108    60600.518    326.60056    83.271328    409.87189    15249.246 
   11450    14.738917    5194.1412    59374.509    335.02633    79.874016    414.90035    15247.594 
   11500    14.805533    5066.5574     60307.79    326.79707    85.413306    412.21038    15245.942 
   11550    14.870188    5122.6315    57664.733    330.41389    75.657531    406.07142     15244.29 
   11600    14.947323    5034.8608    55987.456    324.75261    71.316135    396.06875    15242.638 
   11650    15.025017    4809.9405    56177.983    310.24507    76.642595    386.88766    15240.987 
   11700    15.096676    4734.7937    57236.653    305.39804    78.830822    384.22886    15239.335 
   11750    15.167724    4756.5783    58905.015    306.80316    83.403492    390.20665    15237.684 
   11800     15.23451    5165.5211    56860.569    333.18031    73.722885    406.90319    15236.033 
   11850    15.301126    5224.9077    60529.604    337.01079    83.498377    420.50917    15234.382 
   11900    15.366575    5355.7626      59336.5    345.45104    76.479067    421.93011    15232.731 
   11950    15.432135    5170.0648    59814.419    333.47338    82.551478    416.02486     15231.08 
   12000    15.505477    5074.1476    59249.211    327.28665    80.516542    407.80319    15229.429 
   12050    15.566606    5030.7165    57669.192     324.4853    75.519172    400.00447    15227.778 
   12100    15.628759      4840.72    57598.211    312.23037    80.523494    392.75387    15226.128 
   12150    15.689391    4809.7093    57520.466    310.23016    78.884455    389.11461    15224.477 
   12200    15.754201     4864.418    57336.005    313.75891    77.103726    390.86264    15222.827 
   12250    15.822205     5041.827    56388.001    325.20194    72.770852    397.97279    15221.177 
   12300    15.895506    5165.6177    58721.904    333.18654    76.699559     409.8861    15219.526 
   12350     15.96644    5379.8232    58775.351    347.00297     76.14733     423.1503    15217.877 
   12400    16.046966    5276.2235    62851.463     340.3207    87.686069    428.00677    15216.227 
   12450    16.127771    5100.3015    63160.569    328.97359    91.330904    420.30449    15214.577 
   12500    16.194173    4947.8793    58065.854    319.14223    79.178652    398.32089    15212.927 
   12550    16.258572    4833.6406    56709.352    311.77375     75.79042    387.56417    15211.278 
   12600    16.324397    4723.9841    57879.972    304.70081    82.925663    387.62648    15209.628 
   12650    16.387814    4919.7712    56749.966    317.32924    75.983794    393.31303    15207.979 
   12700    16.453156    4944.5077    59857.324    318.92476    82.821415    401.74618     15206.33 
   12750    16.518875    5115.9305    58409.075    329.98167    79.547405    409.52908    15204.681 
   12800    16.585782    5211.9518     58530.86    336.17512     76.04826    412.22338    15203.032 
   12850    16.653205    5101.0659     59676.81    329.02289    81.009816    410.03271    15201.383 
   12900    16.719239    5196.1854    54681.867    335.15818    66.673567    401.83174    15199.735 
   12950    16.788643    4846.8866    55690.539    312.62812    72.060605    384.68873    15198.086 
   13000    16.856392    4742.9037    54465.289    305.92114    68.638664     374.5598    15196.438 
   13050    16.921369    4603.3039    56065.152    296.91684     78.04501    374.96185    15194.789 
   13100    16.984398    4856.4254    54459.195    313.24338    70.106302    383.34968    15193.141 
   13150    17.048572    4886.7837    57644.992    315.20152     77.20182    392.40334    15191.493 
   13200     17.11463    5007.5553    57563.453    322.99139    75.824039    398.81542    15189.845 
   13250    17.180275    5068.7011    56957.117    326.93534    75.202251    402.13759    15188.197 
   13300    17.244789    5019.8989    58573.642    323.78756    79.446884    403.23444    15186.549 
   13350     17.30893    5121.0976    56762.526    330.31495    72.748332    403.06329    15184.902 
   13400    17.373205    5086.5787    56529.662    328.08846    71.958292    400.04675    15183.254 
   13450    17.437526    4947.6619    56595.506    319.12821    73.913655    393.04187    15181.607 
   13500    17.501336    4782.8681    56207.574    308.49888    74.000263    382.49914    15179.959 
   13550    17.566051    4562.5632    55893.232    294.28904    79.127656    373.41669    15178.312 
   13600    17.631417    4691.8605    54265.553    302.62882    71.168989     373.7978    15176.665 
   13650    17.697467    4852.7295    56617.777    313.00499    75.260846    388.26584    15175.018 
   13700    17.761207    4968.5237     60377.67    320.47382    85.564946    406.03876    15173.372 
   13750    17.827084    5121.4483    60072.365    330.33757    83.453137    413.79071    15171.725 
   13800    17.892464    5167.8012    60287.054    333.32738    82.168943    415.49632    15170.078 
   13850    17.959113    5098.1541      61065.9    328.83508    84.614906    413.44999    15168.432 
   13900    18.025722     5064.174    59746.457    326.64334    81.966088    408.60942    15166.785 
   13950    18.092381    4837.7864    60889.728    312.04116     89.14268    401.18384    15165.139 
   14000     18.15762    4863.9725    59398.333    313.73018    81.626571    395.35675    15163.493 
   14050    18.218606    4779.1982    59266.575    308.26217    84.141263    392.40343    15161.847 
   14100    18.280575    4893.9756    57830.487     315.6654    79.580079    395.24548    15160.201 
   14150    18.343954    5035.9552    59646.994     324.8232    81.465273    406.28848    15158.556 
   14200    18.408927    5240.9052    60759.178    338.04264    83.262028    421.30467     15156.91 
   14250    18.476059    5346.7761    61362.491     344.8714    82.895531    427.76693    15155.264 
   14300    18.543504     5342.045    60086.751    344.56624    79.070019    423.63626    15153.619 
   14350    18.609353    5117.9354    59063.952    330.11099    79.788514     409.8995    15151.974 
   14400    18.675338     4830.515    60261.219    311.57214    86.090322    397.66246    15150.329 
   14450    18.742462    4824.2643    59410.395    311.16896    83.355007    394.52397    15148.683 
   14500     18.81089    5023.3612    56590.786    324.01088    72.491759    396.50264    15147.039 
   14550     18.87804    5046.4054    56726.349    325.49724    74.306593    399.80384    15145.394 
   14600     18.94637    5054.7645    58498.932    326.03641    76.689925    402.72634    15143.749 
   14650    19.014305    5131.1944    56954.668    330.96621     73.75573    404.72194    15142.104 
   14700    19.080646    5019.2646    58811.181    323.74664    79.096449    402.84309     15140.46 
   14750    19.148312     4910.558    57798.975    316.73498    79.525491    396.26047    15138.816 
   14800    19.215386    4771.2748    57140.383     307.7511    78.756251    386.50735    15137.171 
   14850    19.295154    4726.5963    56414.844     304.8693    75.056606    379.92591    15135.527 
   14900    19.368352    4753.9224     56003.74    306.63186    75.564571    382.19643    15133.883 
   14950    19.449883    5010.7658    56392.484    323.19847    71.133391    394.33186    15132.239 
   15000    19.557129    5101.0635    58835.645    329.02274    78.455221    407.47796    15130.596 
   15050    19.649313    5317.0137    57854.541     342.9517    71.778467    414.73017    15128.952 
   15100    19.718851    5122.9025    61203.659    330.43137    83.274976    413.70635    15127.309 
   15150    19.787587    5026.4612    60359.821    324.21083    83.858319    408.06915    15125.665 
   15200    19.858618    4897.6348     59775.85    315.90142     85.08311    400.98453    15124.022 
   15250    19.934468    4887.0604    59056.554    315.21937    80.964993    396.18436    15122.379 
   15300    20.068422    4932.1987    56654.877    318.13082      77.2145    395.34532    15120.736 
   15350    20.145754    4880.3091     59992.71     314.7839    82.001279    396.78518    15119.093 
   15400     20.22101    5019.6709    58214.471    323.77285    76.982376    400.75523     15117.45 
   15450    20.312903    4987.2392    59127.046    321.68098    81.142463    402.82344    15115.807 
   15500     20.39437    5106.1976    58150.824    329.35389    74.456743    403.81064    15114.165 
   15550     20.48806    4970.3657    59338.172    320.59262    83.417633    404.01026    15112.522 
   15600     20.56692    5081.8814    57863.488    327.78548    76.400251    404.18573     15110.88 
   15650    20.647015    4866.0035    62747.389    313.86118    89.653645    403.51482    15109.237 
   15700    20.723329     4967.562    60437.927    320.41178    84.842287    405.25407    15107.595 
   15750    20.800572     4996.578    60433.711    322.28334     84.80432    407.08766    15105.953 
   15800    20.875161    4965.4277    60546.393    320.27412    85.822569    406.09669    15104.311 
   15850    20.948956    5043.2724     58120.34    325.29517    77.523641    402.81881     15102.67 
   15900    21.016755    4972.4872     57146.31    320.72946    75.490052    396.21952    15101.028 
   15950    21.086498    4790.9532     58361.23    309.02038    80.818483    389.83886    15099.386 
   16000    21.158984    4748.7476    58619.429    306.29808    81.403314    387.70139    15097.745 
   16050    21.229835    4793.7723      58953.6     309.2022    83.460036    392.66224    15096.104 
   16100    21.302436    5116.7648    58284.087    330.03548    75.525074    405.56056    15094.463 
   16150    21.382877    5208.2735     61381.71    335.93787    82.640472    418.57834    15092.822 
   16200    21.485439     5321.349    60566.053    343.23133    78.706423    421.93776    15091.181 
   16250    21.582555     5087.891    61587.238     328.1731    86.189354    414.36245     15089.54 
   16300    21.675121    5175.7694    56478.337    333.84133    70.027558    403.86889    15087.899 
   16350    21.778091    4899.1881    58984.395    316.00161    80.243499    396.24511    15086.258 
   16400    21.860768    4941.8406    57331.679    318.75273    75.174869     393.9276    15084.618 
   16450    21.958341    4913.6975    57621.623    316.93748    76.800689    393.73817    15082.978 
   16500    22.041411    4919.6935    58882.784    317.32423    78.817428    396.14165    15081.337 
   16550    22.123177    4926.3864    60018.601    317.75592    83.270956    401.02688    15079.697 
   16600    22.209405    4930.1205    62235.461    317.99678    90.619094    408.61587    15078.057 
   16650    22.286692    5222.6915    61638.992    336.86784    83.063413    419.93126    15076.417 
   16700    22.359956    5338.8218    61423.926    344.35834     82.54319    426.90153    15074.777 
   16750     22.43917    5368.4623    60836.377    346.27018     79.51914    425.78932    15073.138 
   16800    22.519593    5139.7832    58326.175    331.52019    75.050844    406.57104    15071.498 
   16850     22.59245    4754.0676    58250.817    306.64123    81.084824    387.72605    15069.859 
   16900    22.667478    4669.1147    58567.218    301.16169     82.24421     383.4059     15068.22 
   16950    22.741433     4848.047    56877.038    312.70297    74.682021    387.38499     15066.58 
   17000    22.816172    5047.1858    56623.508    325.54759     72.07911     397.6267    15064.941 
   17050    22.892678    5118.7668    58976.964    330.16461    76.904079    407.06869    15063.302 
   17100    22.957564    5038.0683      61899.7     324.9595    87.710807     412.6703    15061.663 
   17150    23.024675    5259.7822    58543.347    339.26023    75.778947    415.03917    15060.025 
   17200    23.090704    5138.1084    59979.518    331.41217     79.65668    411.06885    15058.386 
   17250    23.154295    4964.6325    58490.549    320.22283    77.325868     397.5487    15056.748 
   17300    23.216589     4641.451    58141.815    299.37736    83.078386    382.45574    15055.109 
   17350    23.283403    4779.5407    55373.941    308.28426    71.009347    379.29361    15053.471 
   17400    23.349383    4720.9252    57890.134    304.50351     79.21034    383.71385    15051.833 
   17450     23.41432    4837.7894    58375.137    312.04135    79.708803    391.75015    15050.195 
   17500    23.479382    4906.2635    60161.216    316.45798    81.798132    398.25612    15048.557 
   17550    23.544993    5011.7545    58711.039    323.26224    78.623673    401.88591    15046.919 
   17600    23.610481    5025.1761    58909.798    324.12794    79.225528    403.35347    15045.281 
   17650    23.677043    4942.0102    61315.522    318.76367    85.782016    404.54569    15043.644 
   17700    23.742858    5131.8343    58232.351    331.00748    76.778739    407.78622    15042.006 
   17750    23.812611    5122.9414    59958.059    330.43388     80.04129    410.47517    15040.369 
   17800    23.878163    5093.3423    60002.732    328.52472    82.041003    410.56572    15038.732 
   17850    23.948587    4922.2045    62192.995    317.48619    89.169429    406.65562    15037.095 
   17900    24.017151    5036.3698    57636.456    324.84994    74.260636    399.11058    15035.458 
   17950    24.088441    4832.5354    57858.212    311.70246    79.400109    391.10257    15033.821 
   18000    24.155996    4835.9723    57239.708    311.92414    75.571085    387.49523    15032.184 
   18050    24.220641    4871.7229    56842.478    314.23009    75.113703    389.34379    15030.548 
   18100    24.283621    5049.2701    57580.007    325.68202    73.103185    398.78521    15028.911 
   18150    24.350943    5206.6022    59612.656    335.83007    77.016448    412.84652    15027.275 
   18200    24.416112    5230.7386    61194.533    337.38689    83.065733    420.45262    15025.638 
   18250    24.482529    5269.2857     60917.27    339.87321     79.84229     419.7155    15024.002 
   18300     24.55214    5028.9615    61392.495     324.3721    86.659827    411.03193    15022.366 
   18350    24.617051    4892.1053    61253.969    315.54476    86.436554    401.98132     15020.73 
   18400    24.686369    4906.7523    59756.246    316.48951    82.959154    399.44866    15019.095 
   18450    24.751596    4940.0392    59837.149    318.63654    81.815568    400.45211    15017.459 
   18500    24.817339     4995.477    59137.052    322.21232    80.154939    402.36726    15015.823 
   18550    24.881946    4955.8716    61201.362    319.65775    85.013258      404.671    15014.188 
   18600    24.947595    5061.6018    59262.264    326.47743    79.216757    405.69418    15012.552 
   18650    25.012964    5041.8578    59806.645    325.20393    79.735091    404.93902    15010.917 
   18700    25.078791    4987.7873    59749.619    321.71633    80.819143    402.53547    15009.282 
   18750    25.148286    4969.4257    58888.904      320.532    77.823824    398.35582    15007.647 
   18800    25.214711    4946.3715    57492.756    319.04498    74.914447    393.95943    15006.012 
   18850    25.280679    4980.8372    55083.202    321.26805     68.33046    389.59851    15004.378 
   18900    25.347511    4748.1363    58387.663    306.25865    82.110103    388.36875    15002.743 
   18950      25.4132    5015.3296    56536.967    323.49283     71.14014    394.63297    15001.108 
   19000      25.4789    5139.4258    58508.514    331.49714    73.684617    405.18176    14999.474 
   19050    25.540628     5234.648    59931.586    337.63905    76.759305    414.39835     14997.84 
   19100    25.603881    5265.0465    60393.446    339.59977    78.792953    418.39273    14996.206 
   19150     25.66937    5058.9183    61991.953    326.30434    88.226105    414.53045    14994.571 
   19200    25.733927    4816.8442    63517.081    310.69036    93.298177    403.98854    14992.938 
   19250    25.799846    4761.7763    60039.617    307.13844    83.453983    390.59242    14991.304 
   19300    25.864689     4705.847     56995.59    303.53095    78.305294    381.83625     14989.67 
   19350    25.931727    4647.4614    59863.497    299.76504    83.055895    382.82093    14988.036 
   19400    26.001949    5022.4058    57480.263    323.94925     74.62722    398.57647    14986.403 
   19450    26.087194    5312.0349    59668.979    342.63057    74.664313    417.29488     14984.77 
   19500    26.158373    5338.7447    59855.864    344.35337    75.982485    420.33586    14983.136 
   19550    26.223237    5177.9141    60514.893    333.97966    81.112181    415.09184    14981.503 
   19600    26.296397    5130.6598    58795.782    330.93172      74.6761    405.60782     14979.87 
   19650     26.36296    4917.2656    58006.158    317.16762    78.125581     395.2932    14978.237 
   19700    26.428763    4757.0125    59307.613    306.83117    82.063459    388.89463    14976.605 
   19750    26.495981    4737.5518    58500.506    305.57594    82.773823    388.34977    14974.972 
   19800    26.562833    4944.9323     58759.69    318.95215    76.492346    395.44449    14973.339 
   19850    26.629283    4968.0488    61065.879    320.44318     86.92575    407.36893    14971.707 
   19900    26.697396     5236.725    62226.418    337.77302    81.772114    419.54513    14970.075 
   19950    26.763822    5235.6013    62247.277    337.70054    85.424582    423.12512    14968.442 
   20000    26.835032    5120.2857    62892.499    330.26258    89.131739    419.39432     14966.81 
   20050    26.899274    5083.4524    61598.012    327.88681     86.27112    414.15793    14965.178 
   20100    26.960865    5127.4536    60147.519    330.72492     79.33131    410.05623    14963.547 
   20150    27.024647    4977.1754    61444.922    321.03186    85.471504    406.50336    14961.915 
   20200    27.088547    4958.4854    60020.699    319.82633    83.988023    403.81436    14960.283 
   20250    27.152253    4839.6206     61802.11    312.15946    89.444305    401.60376    14958.652 
   20300    27.217718    4796.6243    62216.029    309.38617    92.503627    401.88979     14957.02 
   20350     27.28216    5081.7076    60522.928    327.77427    79.167159    406.94143    14955.389 
   20400    27.347889    5231.0754    60500.316    337.40861    80.053332    417.46194    14953.758 
   20450    27.413257    5248.7464    64423.928    338.54841    89.885482    428.43389    14952.127 
   20500    27.478507    5478.8085     61654.81     353.3876    79.147511    432.53511    14950.496 
   20550    27.543723    5210.6123     61850.67    336.08873    84.668206    420.75693    14948.865 
   20600     27.60942    4968.1379    60701.305    320.44893    81.547407    401.99634    14947.235 
   20650    27.675764    4841.1806    58969.356    312.26008    80.067197    392.32728    14945.604 
   20700    27.741742    4910.3604    56820.085    316.72223    73.555751    390.27798    14943.974 
   20750    27.814047    4875.3867    59477.543     314.4664    78.736066    393.20247    14942.343 
   20800    27.882504    4847.7866    61418.689    312.68617    87.539533    400.22571    14940.713 
   20850    27.951892     5067.554    60796.883    326.86135    82.985472    409.84682    14939.083 
   20900    28.020759    5285.6103      60647.3    340.92616    77.416913    418.34307    14937.453 
   20950    28.088864    5064.6928    63502.552     326.6768    93.358948    420.03575    14935.823 
   21000    28.158457    5151.8943     62832.78    332.30137    83.699992    416.00136    14934.194 
   21050    28.220832    4890.7857    59945.688    315.45965    84.677892    400.13755    14932.564 
   21100    28.282916    4627.4279    60150.284    298.47286    82.543894    381.01675    14930.934 
   21150    28.349435    4714.2261    56162.959    304.07141    73.804997    377.87641    14929.305 
   21200    28.421938    4686.5021    58189.378    302.28319    81.175399    383.45859    14927.676 
   21250    28.489917    4827.4139    60456.258    311.37212    83.412184     394.7843    14926.047 
   21300     28.55615    5154.1806    57788.912    332.44884    73.688532    406.13737    14924.418 
   21350    28.624798    5089.9668    61610.203      328.307    83.220119    411.52711    14922.789 
   21400     28.69559    5133.0992     60710.89    331.08907    80.809681    411.89875     14921.16 
   21450    28.761835    5102.6507    58250.769    329.12511    76.496259    405.62137    14919.531 
   21500    28.829439      4917.99    59520.976    317.21435    78.626326    395.84068    14917.903 
   21550    28.896135    4761.6879    59933.167    307.13274    81.457616    388.59036    14916.274 
   21600    28.962249    4942.6514    55027.142    318.80503    69.340237    388.14527    14914.646 
   21650     29.02823    4736.0207     62350.98    305.47718    88.331787    393.80897    14913.018 
   21700     29.10762    5185.5379    60506.717     334.4714    80.114483    414.58589     14911.39 
   21750    29.188727    5168.9656    66066.827    333.40248    96.395429    429.79791    14909.762 
   21800    29.283549    5313.5044    63819.005    342.72535    88.300582    431.02593    14908.134 
   21850    29.355336     5083.741    65705.101    327.90542    94.538771    422.44419    14906.506 
   21900    29.427796    4950.6366    63251.447    319.32008    94.123584    413.44367    14904.878 
   21950    29.497416    5049.3986    60781.895    325.69031    80.974384    406.66469    14903.251 
   22000    29.578088    4984.6743    59081.962    321.51554    79.293429    400.80897    14901.623 
   22050    29.669469    5056.6491    56206.719    326.15797    70.084211    396.24218    14899.996 
   22100     29.75687    4871.4389    59819.067    314.21177     78.21964    392.43141    14898.369 
   22150    29.838549    4821.6247    59102.492    310.99871    81.405238    392.40395    14896.742 
   22200    29.936121    4854.8033    60476.296    313.13876    85.093881    398.23264    14895.115 
   22250    30.051974    5247.7371    61894.121    338.48331    79.602273    418.08558    14893.488 
   22300    30.155046    5375.5081     64377.73    346.72464    87.427783    434.15242    14891.861 
   22350    30.260573    5442.1025     61759.25    351.02003    82.939164     433.9592    14890.235 
   22400    30.346092    5139.5762     63546.63    331.50684    90.943411    422.45025    14888.608 
   22450    30.417322    5097.1002    60542.937     328.7671    81.995652    410.76276    14886.982 
   22500    30.505983    4954.9564    61130.309    319.59871    83.386573    402.98528    14885.356 
   22550    30.591117    4932.1156    61818.511    318.12546    80.613215    398.73868     14883.73 
   22600    30.687613    4832.9849    60708.683    311.73145    85.794192    397.52565    14882.104 
   22650    30.775219    5023.2446    57659.865    324.00336    76.624145     400.6275    14880.478 
   22700    30.882557    4891.9574    61361.911    315.53523    89.263177     404.7984    14878.852 
   22750    30.965926    5106.8662    61184.919    329.39702    83.953206    413.35023    14877.226 
   22800      31.0623    5345.0078    63106.137    344.75734    81.527434    426.28478    14875.601 
   22850    31.139123    5400.7735    65139.667    348.35428    85.331755    433.68603    14873.975 
   22900    31.213989    5305.3526    64451.928    342.19956     87.07891    429.27847     14872.35 
   22950    31.286075    5139.6907    60343.703    331.51423    80.497772      412.012    14870.725 
   23000    31.358588    4867.0662    61341.704    313.92973    83.146447    397.07617      14869.1 
   23050    31.431382    4817.1176        60863      310.708    83.118783    393.82678    14867.475 
   23100    31.543849     4992.545    58772.784    322.02321    75.086543    397.10975     14865.85 
   23150    31.637776    4993.0076    60460.817    322.05305    80.750186    402.80323    14864.225 
   23200    31.721582    5044.8314    61223.628    325.39572    84.079399    409.47512    14862.601 
   23250    31.802335    5069.8461     63460.81    327.00919    89.098197    416.10739    14860.976 
   23300    31.880633    5379.0653    59621.005    346.95408    75.722796    422.67688    14859.352 
   23350    31.978487     5228.931    62180.203     337.2703    86.158627    423.42892    14857.728 
   23400    32.055607    4949.5884    64844.122    319.25247    92.251963    411.50443    14856.103 
   23450    32.129815    4835.8006    59723.965    311.91307    82.193505    394.10657    14854.479 
   23500    32.201751    4701.6031    59198.147    303.25722    83.311505    386.56873    14852.855 
   23550    32.273791    4778.0702    58158.547    308.18941    80.649664    388.83907    14851.232 
   23600    32.346207    4946.3222     60522.77     319.0418    79.922548    398.96435    14849.608 
   23650    32.418735    5048.0392    60975.686    325.60263    83.494416    409.09705    14847.984 
   23700    32.503043     5063.799    62657.002    326.61915    87.262228    413.88138    14846.361 
   23750    32.571985    5229.4032    59725.557    337.30076    77.100887    414.40164    14844.738 
   23800     32.64133    5174.8831    59277.833    333.78417    77.183518    410.96768    14843.114 
   23850    32.712908    4970.0308    62166.324    320.57102    84.710752    405.28177    14841.491 
   23900    32.778206    5008.9788    58999.993     323.0832    78.111307    401.19451    14839.868 
   23950    32.846276    4996.5425    58200.453    322.28105     75.47641    397.75746    14838.246 
   24000    32.913812    4784.1896     61475.79    308.58412    86.042209    394.62633    14836.623 
   24050    32.977264    4896.8488    59154.105    315.85072    79.121966    394.97269        14835 
   24100    33.040355    5039.2449     59637.99    325.03539    76.818097    401.85349    14833.378 
   24150     33.10443    4992.9235    63334.738    322.04762    87.633493    409.68111    14831.755 
   24200    33.168782    5135.5562     61981.86    331.24755    84.723176    415.97072    14830.133 
   24250      33.2329    5147.6112    62197.731     332.0251    85.026133    417.05124    14828.511 
   24300    33.297817    4983.2684    65266.119    321.42486    92.588854    414.01372    14826.889 
   24350    33.362602    4968.5891     62470.92    320.47803     88.34425    408.82228    14825.267 
   24400    33.429292    4944.3221    62119.262    318.91279     83.65403    402.56682    14823.645 
   24450     33.50033    4772.5984    61287.129    307.83648    88.215875    396.05235    14822.023 
   24500    33.569699    4876.3274    59040.745    314.52708    78.263949    392.79103    14820.402 
   24550    33.638313    4735.5102    61764.441    305.44426     89.06631    394.51057     14818.78 
   24600    33.708357    5062.5168    59780.961    326.53645    79.600939    406.13739    14817.159 
   24650     33.77471    5127.3463    65633.562      330.718    91.686751    422.40475    14815.538 
   24700    33.841571    5328.8303    63508.007    343.71388    87.580084    431.29397    14813.917 
   24750    33.913404    5393.8844      62204.7    347.90992    81.905435    429.81536    14812.296 
   24800    33.979951    5259.6258    62204.113    339.25014    81.410459     420.6606    14810.675 
   24850     34.05938    5061.7755    60926.221    326.48863     83.95507     410.4437    14809.054 
   24900    34.154128    5048.0316    59836.565    325.60214    78.615636    404.21777    14807.433 
   24950    34.228577    4945.2143    61203.506    318.97034    81.725906    400.69625    14805.813 
   25000    34.306688     4972.604     59452.93      320.737    79.183508    399.92051    14804.192 
   25050    34.374071    5071.5205    58116.592     327.1172    73.711213    400.82841    14802.572 
   25100    34.439387    4971.8197    61577.685    320.68641    81.548213    402.23463    14800.952 
   25150    34.503812    4960.8547    61584.972    319.97916    84.993308    404.97247    14799.332 
   25200    34.569022     5164.713    61582.629    333.12818    78.710754    411.83894    14797.712 
   25250    34.636066    5183.5148    63257.119    334.34092    86.992598    421.33351    14796.092 
   25300    34.701452    5319.6279    63032.681    343.12032    82.485983    425.60631    14794.472 
   25350    34.767005    5193.0094    62259.734    334.95333    85.199505    420.15283    14792.853 
   25400    34.833971    5033.8562    60614.252    324.68781    81.614617    406.30243    14791.233 
   25450    34.901189    4701.3639    63744.236    303.24179    91.087658    394.32945    14789.614 
   25500    34.967489    4758.9066    60314.351    306.95334    84.368368    391.32171    14787.995 
   25550    35.035228    4909.7423    59036.646    316.68237    79.440492    396.12286    14786.375 
   25600    35.102152    4987.9832    62107.116    321.72897     82.35019    404.07916    14784.756 
   25650     35.17047    5035.8438    62086.283    324.81602    86.178365    410.99438    14783.138 
   25700    35.237237    5181.0231    61334.605     334.1802    80.581891    414.76209    14781.519 
   25750    35.304124     5128.237    62715.922    330.77545    81.920667    412.69612      14779.9 
   25800    35.373149     4858.601    60784.788    313.38371    85.855617    399.23933    14778.282 
   25850    35.439988    4610.3003    58909.879    297.36812    81.566454    378.93457    14776.663 
   25900    35.507684    4556.6179    60058.542    293.90556    81.813851    375.71941    14775.045 
   25950    35.576052    4650.9264    59966.148    299.98853    84.913112    384.90164    14773.427 
   26000    35.643295     4856.326    61164.199    313.23697    85.962473    399.19945    14771.808 
   26050    35.706317    5045.1154    62324.161    325.41404    84.183137    409.59718    14770.191 
   26100    35.769562    5001.6447    63555.269    322.61014    91.675419    414.28556    14768.573 
   26150     35.83336     4948.608      66451.9    319.18924     95.89906     415.0883    14766.955 
   26200    35.898179    5135.5998    60939.846    331.25036    81.702649    412.95301    14765.337 
   26250    35.963024    4864.1459    64840.141    313.74136     92.56829    406.30965     14763.72 
   26300    36.029159    4987.6752    58630.618     321.7091    77.091562    398.80066    14762.102 
   26350    36.097611    4664.0119    61405.957    300.83255    87.866741    388.69929    14760.485 
   26400    36.165351    4831.5453      56027.4     311.6386     71.17866    382.81726    14758.868 
   26450    36.230208    4628.5503    59842.254    298.54525    84.307655    382.85291    14757.251 
   26500    36.297005    4929.1661    59652.492    317.93522    77.480641    395.41586    14755.634 
   26550    36.364205    5034.4121    63034.463    324.72367    88.816484    413.54015    14754.017 
   26600    36.430399    5242.8769     63817.48    338.16982    83.328884     421.4987      14752.4 
   26650    36.496826    5069.2954    65188.151    326.97367    93.120728     420.0944    14750.784 
   26700    36.565154     5128.604    61766.315    330.79912    82.285306    413.08443    14749.167 
   26750    36.632362    4958.6916    61248.093    319.83964    82.186361      402.026    14747.551 
   26800    36.700859    4867.3053    59917.711    313.94515    81.080659     395.0258    14745.935 
   26850    36.768306    4898.4862    60048.873    315.95634    77.502982    393.45932    14744.319 
   26900    36.835992    4941.5279    58359.974    318.73256    76.194643     394.9272    14742.703 
   26950    36.905048    4818.9148    62095.964    310.82392    87.342727    398.16665    14741.087 
   27000    36.971143    5093.5555    60671.233    328.53847    76.058135     404.5966    14739.471 
   27050    37.036758    4965.1825    64544.536    320.25831    90.815108    411.07341    14737.855 
   27100    37.101484    5138.0724    65141.946    331.40984    91.719469    423.12931     14736.24 
   27150    37.165038    5558.9994     66685.95    358.55998    88.588092    447.14807    14734.624 
   27200    37.231463    5535.1459    68141.493    357.02141    96.285498    453.30691    14733.009 
   27250    37.295133    5608.4361    62289.265    361.74869    78.464412     440.2131    14731.394 
   27300    37.361788    5295.2905    62076.404    341.55054    78.499706    420.05025    14729.779 
   27350    37.426665       5005.1    62429.893    322.83301    85.732654    408.56567    14728.164 
   27400    37.493789    4864.2261    62502.892    313.74653    88.435815    402.18235    14726.549 
   27450    37.559682    4880.6558    62186.343    314.80627    84.593218    399.39948    14724.934 
   27500    37.625889    4889.0407    62137.459    315.34709    84.681522    400.02862     14723.32 
   27550    37.692599    5093.6667     59255.54    328.54564    75.532784    404.07842    14721.705 
   27600    37.759505    5018.9178    63498.689    323.72427    86.288725      410.013    14720.091 
   27650     37.82627    5230.3807     61690.99     337.3638    80.979531    418.34333    14718.477 
   27700     37.90895    5266.7251    63210.539    339.70805     84.16524    423.87329    14716.863 
   27750    37.985751    5153.3104    66184.965    332.39271    92.143007    424.53572    14715.249 
   27800    38.051272    5163.9138    61707.043    333.07664    81.890206    414.96684    14713.635 
   27850     38.12028    4904.0011    60286.947    316.31205    78.861967    395.17402    14712.021 
   27900     38.18892    4754.1969    58665.211    306.64956    78.801288    385.45085    14710.407 
   27950    38.255937    4844.9402    57878.166    312.50258    73.147009    385.64959    14708.794 
   28000    38.324841     4855.859    59092.566    313.20685    77.211857    390.41871     14707.18 
   28050    38.387465    4944.3046    61213.637    318.91167    81.219038     400.1307    14705.567 
   28100    38.451422    5077.2101    61845.447    327.48418    83.281875    410.76605    14703.954 
   28150    38.515476    5232.1579    61322.691    337.47844    78.219233    415.69767     14702.34 
   28200    38.579829    5121.4557    62193.752    330.33806    83.557186    413.89524    14700.728 
   28250    38.644993    5013.5361    63118.729    323.37715    85.151104    408.52826    14699.115 
   28300    38.711098    5042.0015    60054.568    325.21319    78.611893    403.82508    14697.502 
   28350    38.776603    4924.3455    62684.743    317.62429    83.112674    400.73696    14695.889 
   28400    38.844452    5077.5701    58279.222     327.5074    73.066676    400.57408    14694.277 
   28450    38.910747    5042.2968    59221.383    325.23224    75.644647    400.87689    14692.664 
   28500    38.976515    4949.0394    62247.368    319.21706    81.806111    401.02317    14691.052 
   28550    39.042994    4988.0938    60956.959     321.7361    81.195442    402.93155     14689.44 
   28600    39.110631    5005.0575     61870.93    322.83027    82.739334    405.56961    14687.828 
   28650    39.177695    5048.8263     61758.62     325.6534    81.813058    407.46645    14686.216 
   28700    39.244817    5178.8876    59374.215    334.04246    73.916938    407.95939    14684.604 
   28750    39.312136    4978.5019    63305.899    321.11741    84.918563    406.03598    14682.992 
   28800      39.3791    4873.1294    61224.867    314.32081    84.602806    398.92361    14681.381 
   28850    39.446196    4799.7007    60705.063     309.5846    79.368546    388.95314    14679.769 
   28900    39.513733    4727.2372    58880.943    304.91064    79.502987    384.41363    14678.158 
   28950    39.580711    4743.5469    61048.693    305.96263    82.979811    388.94244    14676.547 
   29000    39.648269    4925.6018    61682.032    317.70532    83.701193    401.40651    14674.936 
   29050    39.712572    5247.6301    60716.035     338.4764    76.087916    414.56432    14673.325 
   29100    39.775792    5356.7249    60141.878    345.51311    74.529843    420.04295    14671.714 
   29150    39.840263    5138.0274    62593.363    331.40694    84.598255     416.0052    14670.103 
   29200    39.903898    5079.3762    61574.679    327.62389    80.217212     407.8411    14668.492 
   29250    39.968588    4957.0615    60656.023    319.73449    79.630892    399.36538    14666.882 
   29300    40.034655    4849.5885    61439.883     312.8024    82.906916    395.70931    14665.271 
   29350    40.101199    4841.2271    62767.555    312.26308    85.419076    397.68215    14663.661 
   29400    40.167766     4965.493    61189.387    320.27834     82.52341    402.80175    14662.051 
   29450    40.232712    5042.4517    61449.875    325.24223    81.092347    406.33458    14660.441 
   29500    40.298976    5083.4646    61494.457    327.88759    79.836577    407.72417    14658.831 
   29550    40.365393    4986.2777    63114.266    321.61896    86.521379    408.14034    14657.221 
   29600    40.433264    5049.0117    62902.646    325.66535      82.2967    407.96205    14655.611 
   29650    40.512745    4997.7407    61969.697    322.35834    84.355743    406.71408    14654.002 
   29700    40.594062    4801.9914     65015.37    309.73235    95.565844    405.29819    14652.392 
   29750    40.687026     5065.399    61169.688    326.72235    80.391925    407.11428    14650.783 
   29800    40.759246    5068.2252    63347.098    326.90464     85.28031    412.18495    14649.173 
   29850    40.830142    5156.1516    63896.514    332.57597    85.438278    418.01425    14647.564 
   29900    40.899288    5187.4133    63399.018    334.59237    85.822172    420.41454    14645.955 
   29950    40.969281    5105.7198    64972.158    329.32307    88.574189    417.89726    14644.346 
   30000    41.041821    5029.4312    63065.426     324.4024    85.445761    409.84816    14642.737 
   30050    41.107429     4898.098    62296.386     315.9313    82.966178    398.89748    14641.129 
   30100     41.17369    4784.9899    60762.489    308.63574    82.592937    391.22868     14639.52 
   30150     41.24251    4753.9061    61664.937     306.6308    84.163027    390.79383    14637.912 
   30200    41.309508    4700.6867    64738.577    303.19811    96.217398    399.41551    14636.303 
   30250    41.377649    5043.4143    64280.027    325.30432    89.817168    415.12148    14634.695 
   30300    41.447233    4988.0776    69407.539    321.73506    102.28366    424.01872    14633.087 
   30350    41.517851    5173.8495    65180.315     333.7175    91.317231    425.03473    14631.479 
   30400    41.587443     5251.331    63079.284    338.71512    82.438868    421.15399    14629.871 
   30450    41.656434    5137.2922    62763.245    331.35952    81.610284    412.96981    14628.263 
   30500    41.723664    4997.2163    61675.282    322.32451    82.709966    405.03448    14626.656 
   30550    41.790344    4796.7705     64074.24    309.39559    91.138052    400.53365    14625.048 
   30600     41.85862    4877.4391    62470.326    314.59878    86.116011    400.71479    14623.441 
   30650    41.926494    5002.2315    61055.875      322.648     80.42145    403.06945    14621.834 
   30700    41.994401    5059.4808    62401.909    326.34062      80.2355    406.57612    14620.226 
   30750    42.062391    5162.5942    61786.575    332.99152    79.523534    412.51505    14618.619 
   30800    42.129712     5278.305    62904.624    340.45496     81.27523    421.73019    14617.012 
   30850    42.198323    5245.8947    65499.609    338.36447     87.53404    425.89851    14615.406 
   30900    42.266193    5076.0746    65875.831    327.41094    93.893986    421.30492    14613.799 
   30950    42.334474    4984.0951    64636.536    321.47819    88.359667    409.83785    14612.192 
   31000    42.402139    4819.1579    62730.208     310.8396    87.938988    398.77859    14610.586 
   31050    42.466161    4861.0765    61729.291    313.54338    80.583169    394.12655    14608.979 
   31100    42.529141    4774.0391    61607.349     307.9294    87.291117    395.22051    14607.373 
   31150    42.593169    4921.8161    62687.723    317.46114    85.271508    402.73264    14605.767 
   31200    42.659782    5101.6323    63963.223    329.05943    86.306575      415.366    14604.161 
   31250    42.725598    5223.8431    66312.379    336.94213    91.497704    428.43983    14602.555 
   31300    42.790736    5352.7736    66113.822    345.25825    87.936774    433.19502    14600.949 
   31350    42.856868    5101.3797    67280.702    329.04314    97.245979    426.28912    14599.344 
   31400    42.924935    4968.2224    63185.194    320.45438    84.574402    405.02878    14597.738 
   31450    42.991767      4745.05    60937.553    306.05958    85.562655    391.62223    14596.133 
   31500    43.058699    4752.4213    62922.315    306.53504    85.639753    392.17479    14594.527 
   31550    43.125532    4944.0878    60072.681    318.89768     78.58757    397.48525    14592.922 
   31600    43.193898    4934.4777    64572.939    318.27782    87.411377     405.6892    14591.317 
   31650    43.261086    5126.0238    61836.535     330.6327    82.941047    413.57374    14589.712 
   31700    43.329588    5092.7924    64917.765    328.48925    89.056329    417.54557    14588.107 
   31750    43.397555    5070.4291    64659.348     327.0468      90.0649     417.1117    14586.502 
   31800    43.465679    4931.4928    65564.794    318.08529    93.352908     411.4382    14584.898 
   31850    43.535173    4974.8922    60960.875    320.88459    81.135881    402.02047    14583.293 
   31900    43.603301    4790.2229    61695.897    308.97327    81.605978    390.57925    14581.689 
   31950    43.670677    4750.2594    59148.799    306.39559    77.973157    384.36875    14580.084 
   32000    43.740235    4543.2861    64352.639    293.04564    92.758291    385.80393     14578.48 
   32050    43.803091    4943.9711    62309.052    318.89015    84.220039    403.11019    14576.876 
   32100    43.867358    5301.3614    62630.597    341.94212    77.737015    419.67913    14575.272 
   32150    43.931927    5205.4561    63945.765    335.75615    86.014964    421.77111    14573.668 
   32200    43.998125    5042.6744    66449.336     325.2566    93.020678    418.27727    14572.065 
   32250    44.064785    4998.8063    64265.391    322.42706     89.03138    411.45844    14570.461 
   32300    44.132125    4935.8184    63734.287    318.36429    85.321985    403.68628    14568.858 
   32350    44.198117    4906.9103    60747.128     316.4997    80.617759    397.11746    14567.254 
   32400    44.264664    4837.9206    61555.858    312.04981    80.777477    392.82729    14565.651 
   32450    44.331643    4888.0589    59272.733    315.28377    76.895875    392.17965    14564.048 
   32500    44.398913    4912.4294    62491.177    316.85569    81.092496    397.94819    14562.445 
   32550    44.465989      5175.95    61987.272    333.85298    80.546475    414.39946    14560.842 
   32600    44.533379    5256.9388    66074.182    339.07682    88.081857    427.15868    14559.239 
   32650    44.601988    5207.0251     66529.98    335.85735    92.335111    428.19246    14557.637 
   32700    44.670655    5180.0866    65128.077    334.11979    88.175997    422.29579    14556.034 
   32750    44.738497    5138.1796    61650.106    331.41676    80.193835    411.61059    14554.432 
   32800    44.807192    4849.2079    64866.634    312.77785    88.201228    400.97908    14552.829 
   32850    44.875832    4817.6721    62179.362    310.74376    86.581998    397.32576    14551.227 
   32900    44.945199    4914.6042    62133.522    316.99596    81.628397    398.62436    14549.625 
   32950    45.011581    4993.7266    61050.214    322.09942    79.894222    401.99365    14548.023 
   33000    45.081725     5031.494    62646.354    324.53545    81.266824    405.80227    14546.421 
   33050    45.146133    4989.5734    64139.024    321.83154    86.857516    408.68905    14544.819 
   33100    45.208481    5147.2669      62611.1     332.0029    79.485077    411.48797    14543.218 
   33150     45.27371     5019.689    63934.333    323.77402    88.178973    411.95299    14541.616 
   33200    45.338446    4971.0343      65285.3    320.63575    90.064741    410.70049    14540.015 
   33250    45.406485    5046.3353    62388.329    325.49273    81.254396    406.74712    14538.414 
   33300    45.471709    4892.1315    61753.857    315.54646    82.582342     398.1288    14536.812 
   33350    45.537737    4790.4584    61675.555    308.98846    82.155258    391.14371    14535.211 
   33400    45.602187    4734.8957    61874.197    305.40462    85.003593    390.40821     14533.61 
   33450    45.669491    4850.8992    61900.395    312.88694    84.433053    397.31999     14532.01 
   33500    45.735953    4967.1064    65398.645     320.3824    89.248417    409.63082    14530.409 
   33550    45.801388    5087.5594    67194.814    328.15172    92.692235    420.84395    14528.808 
   33600    45.869308    5157.6201    66513.977    332.67068    93.469588    426.14027    14527.208 
   33650    45.937367    5168.5002        66949    333.37246    91.626743    424.99921    14525.607 
   33700    46.004354    5105.7025     65380.31    329.32196    89.781849    419.10381    14524.007 
   33750    46.072716    4855.5094    65593.015     313.1843    95.579286    408.76358    14522.407 
   33800    46.144223    4912.7793    62669.016    316.87825    83.100499    399.97875    14520.807 
   33850    46.211996    4917.7219    60178.472    317.19706    77.270711    394.46777    14519.207 
   33900    46.278184    4653.7426    62590.768    300.17018    88.799652    388.96983    14517.607 
   33950    46.345691    4706.0192    61289.206    303.54206    81.173962    384.71603    14516.008 
   34000    46.413863     4754.945    61552.252    306.69782    82.631817    389.32963    14514.408 
   34050    46.479322    4882.9951     64293.61    314.95715    87.825776    402.78293    14512.809 
   34100    46.545019    5239.4076    62435.021    337.94604    78.363387    416.30943    14511.209 
   34150    46.610541    5159.0717    65163.022    332.76431    89.687982     422.4523     14509.61 
   34200    46.687228    5211.6964    65763.102    336.15865    87.066105    423.22476    14508.011 
   34250    46.763107    5146.3533     64075.63    331.94397     85.48392    417.42789    14506.412 
   34300    46.837645    4985.8174    62656.691    321.58928    83.957545    405.54682    14504.813 
   34350    46.913156    4925.6517     60587.37    317.70854     76.69555    394.40409    14503.215 
   34400    46.989167    4836.0423    59995.128    311.92866    76.960637     388.8893    14501.616 
   34450    47.067717    4779.8903    60061.157     308.3068     79.76055    388.06735    14500.018 
   34500    47.141588    4863.3098    60759.976    313.68743    79.272281    392.95971    14498.419 
   34550    47.211192    5074.2183    61388.995     327.2912    77.394118    404.68532    14496.821 
   34600    47.281393    5167.0011    63214.907    333.27577    83.059029     416.3348    14495.223 
   34650    47.350614     5247.064    64519.239    338.43989    82.873299    421.31319    14493.625 
   34700    47.420963    5228.3561    63818.804    337.23322    83.782462    421.01568    14492.027 
   34750    47.491063     5107.469    65592.455     329.4359    88.328811    417.76471    14490.429 
   34800    47.558041    4959.3242    67212.667    319.88044    94.730411    414.61085    14488.831 
   34850    47.625837    5052.3401    64960.447    325.88004    87.988388    413.86843    14487.234 
   34900    47.695307    5062.3083    63962.466      326.523    85.685362    412.20836    14485.636 
   34950    47.770252    5004.9813    64266.753    322.82536    86.141553    408.96691    14484.039 
   35000     47.84302    5006.2315    62765.323      322.906    82.987999      405.894    14482.442 
   35050    47.909903    4898.7285    63673.391    315.97197    86.638418    402.61038    14480.844 
   35100    47.978118    4914.3799    63347.245     316.9815    86.396344    403.37784    14479.247 
   35150    48.044992    4975.7079    64796.174     320.9372    88.794573    409.73177    14477.651 
   35200    48.111573     5035.844    66634.306    324.81603    93.184028    418.00006    14476.054 
   35250    48.223182    5212.3879    65638.279    336.20326    88.904853    425.10811    14474.457 
   35300     48.28971    5217.1337    66928.946    336.50936    90.618219    427.12758    14472.861 
   35350    48.358108    5115.9266    65613.895    329.98142    91.366842    421.34827    14471.264 
   35400    48.424504    4947.5994    64738.816    319.12418    87.560697    406.68488    14469.668 
   35450    48.492272    4761.2882    63291.149    307.10696    87.877283    394.98424    14468.072 
   35500    48.559493    4820.7956    61613.219    310.94523    81.773087    392.71832    14466.476 
   35550    48.627982    4796.2191    63484.737    309.36003    87.494859    396.85489     14464.88 
   35600    48.696532    4959.7492    63753.602    319.90785    84.875745     404.7836    14463.284 
   35650    48.764965    5022.0089     64780.84    323.92365    87.801066    411.72472    14461.688 
   35700    48.835614    4984.5493    66662.679    321.50748    92.887355    414.39483    14460.092 
   35750    48.903607    5044.4861     65368.51    325.37345    88.596863    413.97031    14458.497 
   35800    48.971354    4887.0814    67483.224    315.22072    98.207995    413.42871    14456.902 
   35850    49.039385    4975.9745    66467.339     320.9544    93.086467    414.04087    14455.306 
   35900     49.10848    5015.6004    66125.782     323.5103    90.829019    414.33932    14453.711 
   35950    49.177784    5195.2301    61832.146    335.09656    77.175768    412.27233    14452.116 
   36000    49.246923    4914.6305    64370.697    316.99766    87.775921    404.77358    14450.521 
   36050    49.311077    4793.1186    63149.235    309.16004    84.924902    394.08495    14448.926 
   36100     49.37374    4645.7157    60935.385    299.65244    82.159727    381.81216    14447.332 
   36150    49.438689    4503.8086    61156.595    290.49931    84.999753    375.49907    14445.737 
   36200    49.507328    4563.1322    64104.867    294.32574    88.547868    382.87361    14444.143 
   36250    49.572744     4967.762    62584.418    320.42468    83.134724    403.55941    14442.548 
   36300    49.639726    5129.5257    63457.261    330.85857    82.469444    413.32802    14440.954 
   36350    49.707537    5071.7359    65805.672    327.13108    87.864456    414.99554     14439.36 
   36400    49.774597     5013.184    65216.322    323.35444    89.893894    413.24833    14437.766 
   36450    49.844068    5143.1914    61997.433    331.74002     77.25956    408.99958    14436.172 
   36500    49.916798    5017.4154     61886.87    323.62737    79.037427     402.6648    14434.578 
   36550    49.995039     4790.673     63459.48     309.0023    88.064845    397.06714    14432.985 
   36600    50.070402    4851.3075     62211.69    312.91327    82.925867    395.83914    14431.391 
   36650    50.160973    4835.3736     63842.53    311.88552    87.268659    399.15418    14429.798 
   36700    50.229333    5007.0516    64716.262    322.95889    87.275662    410.23456    14428.204 
   36750    50.297935    5375.9513    63375.899    346.75322    78.535622    425.28885    14426.611 
   36800    50.365781    5395.4171    64696.733    348.00878    81.957408    429.96619    14425.018 
   36850    50.435404    5220.1186    65178.592    336.70189    85.845065    422.54695    14423.425 
   36900     50.50373    4854.8678    67244.915    313.14292    95.938676    409.08159    14421.832 
   36950    50.572751    5025.8604    61796.161    324.17208    77.616936    401.78901    14420.239 
   37000     50.64221    4820.9126     64054.41    310.95278    88.571749    399.52453    14418.647 
   37050     50.70771    4923.9304    63019.714    317.59751    84.506356    402.10387    14417.054 
   37100    50.770897    5093.0064    62469.955    328.50305    79.005598    407.50865    14415.462 
   37150    50.836847    5030.7935    64815.854    324.49027    87.968611    412.45888     14413.87 
   37200     50.90223    5063.2134    65188.175    326.58137    89.453693    416.03507    14412.278 
   37250    50.968652    5170.7944    63290.305    333.52044    82.246377    415.76682    14410.685 
   37300    51.034843    5022.0458    64732.235    323.92603     85.30919    409.23522    14409.094 
   37350    51.104697    4806.6781    62834.587    310.03464    84.815653     394.8503    14407.502 
   37400    51.175277    4589.0043    61245.072    295.99451    82.811537    378.80604     14405.91 
   37450    51.244096    4721.8364    57890.895    304.56229    71.994739    376.55703    14404.318 
[...]
  727950    286.10048    5.5335296     410.6787 
  728000    293.58937    5.5335296    410.96583 
  728050    308.94381    5.5335296    411.25956 
  728100    295.33763    5.5335296    411.54811 
  728150    300.02153    5.5335296    411.84017 
  728200    292.34567    5.5335296    412.12511 
  728250    298.60835    5.5335296    412.46242 
  728300    309.55465    5.5335296    412.76344 
  728350    303.07288    5.5335296    413.04278 
  728400    314.72172    5.5335296    413.31454 
  728450    311.12346    5.5335296    413.59771 
  728500    299.66495    5.5335296    413.90404 
  728550    304.63763    5.5335296     414.2166 
  728600    302.17668    5.5335296    414.50743 
  728650     294.0509    5.5335296    414.80645 
  728700    297.29742    5.5335296    415.09316 
  728750    301.33627    5.5335296    415.38743 
  728800    305.25739    5.5335296    415.67512 
  728850    301.58946    5.5335296    415.96248 
  728900    278.86133    5.5335296    416.24921 
  728950    312.66278    5.5335296     416.5394 
  729000    321.75848    5.5335296    416.83105 
  729050    324.19972    5.5335296    417.11417 
  729100    299.95439    5.5335296    417.40291 
  729150    309.85028    5.5335296    417.69171 
  729200    303.24104    5.5335296    417.98258 
  729250    288.11997    5.5335296    418.26016 
  729300    295.77573    5.5335296    418.54509 
  729350    303.55553    5.5335296    418.82358 
  729400    305.41968    5.5335296    419.09947 
  729450    300.69608    5.5335296    419.38623 
  729500    272.59852    5.5335296    419.66178 
  729550    299.64874    5.5335296    419.94801 
  729600     310.0486    5.5335296    420.23585 
  729650    312.30188    5.5335296    420.52293 
  729700    303.47903    5.5335296    420.81196 
  729750    313.21564    5.5335296    421.09325 
  729800    306.45186    5.5335296    421.41792 
  729850    308.26411    5.5335296    421.71924 
  729900    299.80268    5.5335296    422.00195 
  729950       285.42    5.5335296    422.28355 
  730000     302.5628    5.5335296     422.5787 
  730050    295.80633    5.5335296    422.88975 
  730100    298.92495    5.5335296    423.18129 
  730150    298.23102    5.5335296    423.49623 
  730200    305.44256    5.5335296    423.78189 
  730250    301.98302    5.5335296    424.08093 
  730300    307.62057    5.5335296    424.37864 
  730350    298.85165    5.5335296    424.67571 
  730400     323.4025    5.5335296    424.95938 
  730450    308.53765    5.5335296    425.24421 
  730500    298.23153    5.5335296    425.54006 
  730550     303.5951    5.5335296    425.82775 
  730600    296.96274    5.5335296    426.10819 
  730650    282.87747    5.5335296    426.39072 
  730700    296.76667    5.5335296     426.6534 
  730750    283.97024    5.5335296    426.90523 
  730800    291.57617    5.5335296    427.20496 
  730850    289.15943    5.5335296     427.4938 
  730900    301.83571    5.5335296    427.78434 
  730950     305.3295    5.5335296    428.06424 
  731000    311.83729    5.5335296    428.34949 
  731050    311.68008    5.5335296    428.63869 
  731100    301.93602    5.5335296    428.93617 
  731150    303.35838    5.5335296    429.20854 
  731200    302.82082    5.5335296     429.5094 
  731250    298.29401    5.5335296     429.8094 
  731300    295.63727    5.5335296    430.10127 
  731350    290.12944    5.5335296    430.39167 
  731400    300.95726    5.5335296    430.65033 
  731450    301.84653    5.5335296    430.89875 
  731500    315.30734    5.5335296    431.14938 
  731550    316.32698    5.5335296    431.39638 
  731600     325.2054    5.5335296    431.64583 
  731650    317.94937    5.5335296     431.8921 
  731700    299.17343    5.5335296    432.15135 
  731750     304.2998    5.5335296    432.43233 
  731800     302.4634    5.5335296    432.72352 
  731850    297.30989    5.5335296    433.02862 
  731900    311.66291    5.5335296    433.33805 
  731950    287.32137    5.5335296     433.6294 
  732000    297.16076    5.5335296    433.91933 
  732050    301.70384    5.5335296    434.20746 
  732100     298.2628    5.5335296    434.50309 
  732150    332.36555    5.5335296    434.78997 
  732200    322.76841    5.5335296    435.07987 
  732250    307.85011    5.5335296    435.37554 
  732300    302.05121    5.5335296    435.68375 
  732350    295.25786    5.5335296    435.97099 
  732400    300.31921    5.5335296    436.25907 
  732450    301.42354    5.5335296    436.54727 
  732500     292.6436    5.5335296    436.84134 
  732550    311.30443    5.5335296    437.14603 
  732600    288.96726    5.5335296    437.43096 
  732650    302.83241    5.5335296    437.72069 
  732700     310.4001    5.5335296    438.02509 
  732750    295.75355    5.5335296    438.31814 
  732800    284.25479    5.5335296    438.61517 
  732850    302.90927    5.5335296     438.9052 
  732900    299.76079    5.5335296    439.19489 
  732950    307.50484    5.5335296    439.48775 
  733000    309.64582    5.5335296    439.77776 
  733050    316.04724    5.5335296    440.07222 
  733100    299.76572    5.5335296    440.39468 
  733150    289.75596    5.5335296     440.6892 
  733200     289.5185    5.5335296    440.98085 
  733250    277.41806    5.5335296    441.27424 
  733300    302.68504    5.5335296    441.56654 
  733350    298.59485    5.5335296    441.85709 
  733400    296.33646    5.5335296    442.14962 
  733450    293.14515    5.5335296     442.4514 
  733500     308.1828    5.5335296    442.74276 
  733550    293.41517    5.5335296    443.03862 
  733600    308.24229    5.5335296     443.3305 
  733650    304.82208    5.5335296    443.61694 
  733700    299.83934    5.5335296    443.91839 
  733750    298.31729    5.5335296    444.20863 
  733800    305.70236    5.5335296    444.50714 
  733850    299.84341    5.5335296    444.80199 
  733900    308.38926    5.5335296      445.103 
  733950    282.94616    5.5335296    445.39134 
  734000    285.27775    5.5335296    445.67666 
  734050    287.33828    5.5335296    445.96618 
  734100    292.61331    5.5335296    446.25544 
  734150     278.2787    5.5335296    446.54448 
  734200    295.44856    5.5335296    446.83346 
  734250    292.76487    5.5335296    447.12793 
  734300    311.16649    5.5335296    447.41328 
  734350     302.6477    5.5335296    447.70034 
  734400    295.23794    5.5335296    447.99119 
  734450    294.68629    5.5335296    448.28813 
  734500    305.02814    5.5335296    448.58708 
  734550    299.39603    5.5335296    448.89707 
  734600    295.61876    5.5335296    449.20279 
  734650    296.68909    5.5335296    449.49369 
  734700    304.94169    5.5335296    449.77942 
  734750    292.83759    5.5335296    450.07051 
  734800    294.47116    5.5335296    450.38703 
  734850    292.89582    5.5335296    450.68327 
  734900    301.78988    5.5335296    450.95666 
  734950    299.41936    5.5335296    451.19722 
  735000    301.42375    5.5335296    451.45279 
  735050    312.52662    5.5335296    451.72583 
  735100    292.93666    5.5335296    451.98856 
  735150    289.73666    5.5335296    452.27382 
  735200    294.05222    5.5335296    452.55636 
  735250    279.73425    5.5335296    452.84451 
  735300    286.07548    5.5335296    453.14516 
  735350    294.33607    5.5335296    453.43417 
  735400    300.70889    5.5335296    453.70363 
  735450    308.30513    5.5335296    453.96125 
  735500    306.20585    5.5335296    454.21216 
  735550     296.7487    5.5335296     454.4681 
  735600    304.87908    5.5335296    454.73043 
  735650    313.22184    5.5335296    455.00771 
  735700    301.46616    5.5335296    455.29225 
  735750    297.07707    5.5335296    455.57823 
  735800    310.00575    5.5335296    455.86872 
  735850    295.41096    5.5335296    456.16035 
  735900    290.22144    5.5335296    456.45309 
  735950     269.2421    5.5335296    456.73862 
  736000    270.75464    5.5335296    457.04269 
  736050    280.94255    5.5335296    457.33132 
  736100    288.16435    5.5335296    457.61939 
  736150    296.46829    5.5335296    457.91473 
  736200    293.54536    5.5335296    458.21615 
  736250    298.21938    5.5335296    458.51669 
  736300    286.43069    5.5335296    458.82386 
  736350     299.7487    5.5335296    459.12539 
  736400    320.88756    5.5335296    459.42778 
  736450    292.77598    5.5335296    459.72575 
  736500    293.42983    5.5335296    460.01995 
  736550    294.62218    5.5335296    460.31601 
  736600    284.23346    5.5335296    460.61421 
  736650     294.7323    5.5335296    460.88824 
  736700    305.23375    5.5335296    461.16466 
  736750    301.21064    5.5335296    461.45981 
  736800    288.84858    5.5335296    461.75575 
  736850      299.187    5.5335296    462.04462 
  736900    304.48888    5.5335296    462.33399 
  736950    295.32157    5.5335296    462.62911 
  737000     305.6614    5.5335296     462.9211 
  737050    297.16162    5.5335296    463.22807 
  737100    302.79488    5.5335296    463.52531 
  737150    308.77775    5.5335296    463.81982 
  737200    306.08624    5.5335296    464.13201 
  737250    291.21046    5.5335296    464.43048 
  737300     289.5843    5.5335296    464.74768 
  737350    284.21044    5.5335296    465.05946 
  737400    296.44284    5.5335296    465.36742 
  737450    294.08496    5.5335296    465.66735 
  737500    305.18232    5.5335296    465.96755 
  737550    301.86038    5.5335296     466.2697 
  737600    302.58315    5.5335296    466.56187 
  737650    297.51736    5.5335296    466.85141 
  737700    297.23396    5.5335296    467.13018 
  737750    316.09052    5.5335296    467.43348 
  737800    300.76176    5.5335296    467.72786 
  737850    304.03261    5.5335296    468.02582 
  737900    284.77869    5.5335296     468.3276 
  737950     292.9623    5.5335296    468.63729 
  738000    301.48243    5.5335296    468.95296 
  738050    303.89348    5.5335296    469.28641 
  738100    287.33524    5.5335296    469.60666 
  738150    291.57857    5.5335296    469.90298 
  738200      297.974    5.5335296     470.1996 
  738250    289.74744    5.5335296    470.49578 
  738300    314.87586    5.5335296    470.80178 
  738350    299.91586    5.5335296     471.0983 
  738400    302.93881    5.5335296    471.38726 
  738450    307.52407    5.5335296    471.67889 
  738500      295.596    5.5335296    471.96981 
  738550    317.26892    5.5335296    472.26655 
  738600    300.05914    5.5335296    472.56231 
  738650    279.82891    5.5335296    472.85052 
  738700    293.88177    5.5335296    473.15563 
  738750    303.45322    5.5335296    473.45686 
  738800    298.23532    5.5335296    473.75856 
  738850    305.04121    5.5335296    474.04852 
  738900    310.95045    5.5335296    474.33736 
  738950    305.46088    5.5335296    474.64757 
  739000    307.29977    5.5335296    474.95706 
  739050    297.75444    5.5335296    475.24966 
  739100    296.11737    5.5335296    475.55259 
  739150    309.53897    5.5335296    475.84941 
  739200    296.34546    5.5335296    476.14109 
  739250    282.07315    5.5335296    476.45261 
  739300     295.0462    5.5335296      476.761 
  739350    295.63611    5.5335296    477.09247 
  739400    306.27345    5.5335296    477.39429 
  739450    313.49401    5.5335296    477.69322 
  739500    297.06283    5.5335296    477.99369 
  739550    308.31721    5.5335296    478.29438 
  739600    312.18374    5.5335296     478.6036 
  739650    298.29761    5.5335296     478.9065 
  739700    333.91585    5.5335296    479.20767 
  739750    299.60318    5.5335296    479.50074 
  739800    294.95788    5.5335296    479.78906 
  739850    286.77784    5.5335296    480.09241 
  739900    295.74607    5.5335296    480.40272 
  739950    290.58078    5.5335296    480.71525 
  740000    295.51141    5.5335296    481.00144 
  740050    284.39022    5.5335296    481.29233 
  740100    298.85387    5.5335296    481.58067 
  740150    308.71891    5.5335296    481.86787 
  740200    320.25129    5.5335296    482.15964 
  740250    298.13004    5.5335296    482.44759 
  740300     308.8382    5.5335296     482.7514 
  740350    316.73024    5.5335296    483.06472 
  740400    310.63572    5.5335296    483.37893 
  740450     299.3613    5.5335296    483.69622 
  740500    303.99642    5.5335296    484.01201 
  740550    299.49838    5.5335296    484.33063 
  740600    320.86806    5.5335296    484.64939 
  740650    295.51817    5.5335296    484.96527 
  740700    296.96212    5.5335296    485.28061 
  740750    293.50211    5.5335296    485.59591 
  740800    299.70355    5.5335296    485.91832 
  740850    317.41738    5.5335296    486.23784 
  740900    304.80759    5.5335296    486.54155 
  740950    304.65695    5.5335296    486.86116 
  741000    303.88945    5.5335296    487.16757 
  741050    285.58036    5.5335296    487.46264 
  741100    293.82105    5.5335296    487.78032 
  741150    285.22925    5.5335296    488.10424 
  741200    305.16347    5.5335296    488.40309 
  741250    295.38914    5.5335296    488.70336 
  741300    305.36171    5.5335296    488.99996 
  741350    300.94225    5.5335296    489.28982 
  741400    310.85066    5.5335296    489.59069 
  741450    309.76091    5.5335296    489.88082 
  741500    310.64719    5.5335296    490.17792 
  741550    295.24105    5.5335296    490.47151 
  741600    296.40031    5.5335296    490.75317 
  741650    296.05104    5.5335296    491.02804 
  741700    302.36804    5.5335296    491.32058 
  741750    309.64464    5.5335296    491.60967 
  741800    291.67486    5.5335296    491.89828 
  741850    290.05119    5.5335296    492.18814 
  741900    308.92505    5.5335296    492.48062 
  741950      309.125    5.5335296    492.78727 
  742000    303.83411    5.5335296    493.09887 
  742050    308.24524    5.5335296    493.38033 
  742100    321.06182    5.5335296    493.67613 
  742150    311.28691    5.5335296    493.96322 
  742200    289.70708    5.5335296    494.27116 
  742250    301.98857    5.5335296    494.56297 
  742300    286.57827    5.5335296    494.85831 
  742350    290.05689    5.5335296    495.14696 
  742400    297.16746    5.5335296    495.44058 
  742450    294.48224    5.5335296    495.74504 
  742500     290.1792    5.5335296    496.04018 
  742550    288.10119    5.5335296    496.33956 
  742600    318.81513    5.5335296    496.65034 
  742650    296.65754    5.5335296    496.94306 
  742700    313.89751    5.5335296    497.24187 
  742750    318.75921    5.5335296    497.58707 
  742800    286.89465    5.5335296    497.88563 
  742850    291.45594    5.5335296    498.19637 
  742900    294.80354    5.5335296    498.53055 
  742950    297.63131    5.5335296    498.83132 
  743000    282.77268    5.5335296    499.14253 
  743050    311.35966    5.5335296    499.44166 
  743100    290.57525    5.5335296    499.81219 
  743150    297.57413    5.5335296    500.11036 
  743200    306.21197    5.5335296    500.40824 
  743250    286.69241    5.5335296    500.69829 
  743300    303.63766    5.5335296    501.02683 
  743350    314.40874    5.5335296    501.33062 
  743400    316.88691    5.5335296    501.64232 
  743450     310.7713    5.5335296    501.95664 
  743500    297.84226    5.5335296    502.27351 
  743550    305.92057    5.5335296    502.58629 
  743600    288.44008    5.5335296    502.89867 
  743650    311.42065    5.5335296    503.20641 
  743700    286.86011    5.5335296    503.50449 
  743750    298.57501    5.5335296    503.80083 
  743800    284.53399    5.5335296    504.10226 
  743850    294.11616    5.5335296    504.40619 
  743900    294.55376    5.5335296    504.71077 
  743950    301.70172    5.5335296    505.02021 
  744000    292.73724    5.5335296    505.33837 
  744050    313.60761    5.5335296    505.62997 
  744100    315.37383    5.5335296    505.92294 
  744150    298.97343    5.5335296    506.22455 
  744200    295.84733    5.5335296    506.51295 
  744250    282.94136    5.5335296    506.80649 
  744300    289.40458    5.5335296    507.11094 
  744350    292.11937    5.5335296    507.42682 
  744400    290.65234    5.5335296     507.7448 
  744450    302.00931    5.5335296    508.07826 
  744500    305.93909    5.5335296    508.41998 
  744550    309.73402    5.5335296    508.76044 
  744600    302.25602    5.5335296    509.10863 
  744650    313.93015    5.5335296    509.43744 
  744700    306.69017    5.5335296    509.75126 
  744750    305.66657    5.5335296    510.06811 
  744800    304.64103    5.5335296    510.38034 
  744850    291.28252    5.5335296    510.69375 
  744900    300.93231    5.5335296    510.99354 
  744950    301.27503    5.5335296    511.29379 
  745000    295.14886    5.5335296    511.59172 
  745050    305.80836    5.5335296    511.90011 
  745100    322.46995    5.5335296    512.20835 
  745150    296.16314    5.5335296    512.50423 
  745200    306.43504    5.5335296    512.79169 
  745250    295.94813    5.5335296    513.08463 
  745300    317.93669    5.5335296    513.39674 
  745350    299.08275    5.5335296    513.68709 
  745400    301.35219    5.5335296    513.97653 
  745450    287.83535    5.5335296    514.27443 
  745500    299.52844    5.5335296    514.57616 
  745550    295.46541    5.5335296    514.87948 
  745600    305.60536    5.5335296    515.16833 
  745650    282.80443    5.5335296    515.46071 
  745700    286.85746    5.5335296    515.76953 
  745750    313.80586    5.5335296    516.08072 
  745800    296.25918    5.5335296    516.39663 
  745850    302.52789    5.5335296    516.69674 
  745900    309.72286    5.5335296    516.98764 
  745950    308.39139    5.5335296    517.27453 
  746000    317.18187    5.5335296    517.59374 
  746050    296.48457    5.5335296    517.88214 
  746100     291.5984    5.5335296    518.18716 
  746150    296.12625    5.5335296    518.49316 
  746200    285.78388    5.5335296    518.79136 
  746250    274.70361    5.5335296    519.08532 
  746300    297.38578    5.5335296    519.38882 
  746350    307.92401    5.5335296    519.69017 
  746400    317.27011    5.5335296    519.98516 
  746450    289.66295    5.5335296    520.27764 
  746500     288.9927    5.5335296    520.56855 
  746550    302.12656    5.5335296    520.85624 
  746600    280.80538    5.5335296    521.13026 
  746650    302.93833    5.5335296     521.4031 
  746700    314.50589    5.5335296    521.69275 
  746750     305.5905    5.5335296    521.97662 
  746800    288.17493    5.5335296    522.29296 
  746850    295.13343    5.5335296    522.59825 
  746900    294.56859    5.5335296    522.91402 
  746950    300.83339    5.5335296    523.21271 
  747000    293.81619    5.5335296    523.50541 
  747050    286.46049    5.5335296    523.81516 
  747100     304.5699    5.5335296    524.12109 
  747119    295.27654    5.5335296    524.24118 
Loop time of 524.241 on 1 procs for 100000 steps with 500 atoms

Performance: 16.481 ns/day, 1.456 hours/ns, 190.752 timesteps/s
100.0% CPU use with 1 MPI tasks x no OpenMP threads

MPI task timing breakdown:
Section |  min time  |  avg time  |  max time  |%varavg| %total
---------------------------------------------------------------
Pair    | 504.94     | 504.94     | 504.94     |   0.0 | 96.32
Kspace  | 14.909     | 14.909     | 14.909     |   0.0 |  2.84
Neigh   | 0          | 0          | 0          |   0.0 |  0.00
Comm    | 2.908      | 2.908      | 2.908      |   0.0 |  0.55
Output  | 0.12023    | 0.12023    | 0.12023    |   0.0 |  0.02
Modify  | 0.73809    | 0.73809    | 0.73809    |   0.0 |  0.14
Other   |            | 0.6292     |            |       |  0.12

Nlocal:    500 ave 500 max 500 min
Histogram: 1 0 0 0 0 0 0 0 0 0
Nghost:    8898 ave 8898 max 8898 min
Histogram: 1 0 0 0 0 0 0 0 0 0
Neighs:    295395 ave 295395 max 295395 min
Histogram: 1 0 0 0 0 0 0 0 0 0

Total # of neighbors = 295395
Ave neighs/atom = 590.79
Neighbor list builds = 0
Dangerous builds = 0

Total wall time: 0:40:01
