LAMMPS (20 Nov 2019)
#INIT: cooling rate 100K/ps


units metal
dimension 3
atom_style charge #atomic
boundary p p p
neighbor 2.0 bin
neigh_modify delay 1 #check yes one 1000 page 2000


#SYS DEF
region box block 0 25 0 25 0 25
create_box 2 box
Created orthogonal box = (0 0 0) to (25 25 25)
  1 by 1 by 1 MPI processor grid

create_atoms 1 random 200 1 box
Created 200 atoms
  create_atoms CPU = 0.0001042 secs
create_atoms 2 random 300 2 box
Created 300 atoms
  create_atoms CPU = 1.39e-05 secs

mass 1 26.9815
mass 2 15.9994
set atom 1 charge 1.4175
  1 settings made for charge
set atom 2 charge -0.9450
  1 settings made for charge

#potential config
pair_style born/coul/long 10.0
pair_coeff 1 1 0.00294848 0.068 1.5704 0.14561856 1
pair_coeff 1 2 0.00745792 0.172 2.6067 0.35836056 1
pair_coeff 2 2 0.01196736 0.276 3.643 	 0.88190881 1

kspace_style pppm 1.0e-4


#SIMULATION
dump dmp all atom 5000 a_al2o3_0_dump.lammpstrj



#RUN
#minimize energy so there is no overlap
timestep 0.0005
minimize 1.0e-4 1.0e-6 10000 100000
WARNING: Using 'neigh_modify every 1 delay 0 check yes' setting during minimization (src/min.cpp:178)
PPPM initialization ...
WARNING: System is not charge neutral, net charge = 0.4725 (src/kspace.cpp:304)
  using 12-bit tables for long-range coulomb (src/kspace.cpp:323)
  G vector (1/distance) = 0.154195
  grid = 4 4 4
  stencil order = 5
  estimated absolute RMS force accuracy = 0.00124323
  estimated relative force accuracy = 8.63378e-05
  using double precision FFTW3
  3d grid and FFT values/proc = 729 64
Neighbor list info ...
  update every 1 steps, delay 0 steps, check yes
  max neighbors/atom: 2000, page size: 100000
  master list distance cutoff = 12
  ghost atom cutoff = 12
  binsize = 6, bins = 5 5 5
  1 neighbor lists, perpetual/occasional/extra = 1 0 0
  (1) pair born/coul/long, perpetual
      attributes: half, newton on
      pair build: half/bin/atomonly/newton
      stencil: half/bin/3d/newton
      bin: standard
Per MPI rank memory allocation (min/avg/max) = 5.912 | 5.912 | 5.912 Mbytes
Step Temp E_pair E_mol TotEng Press 
       0            0    88557.674            0    88557.674     20647081 
      46            0    17.382148            0    17.382148    14403.392 
Loop time of 0.132477 on 1 procs for 46 steps with 500 atoms

95.0% CPU use with 1 MPI tasks x no OpenMP threads

Minimization stats:
  Stopping criterion = energy tolerance
  Energy initial, next-to-last, final = 
         88557.6743642      17.3821538759      17.3821475059
  Force two-norm initial, final = 2.80432e+06 14.2197
  Force max component initial, final = 1.84954e+06 7.3044
  Final line search alpha, max atom move = 0.000170395 0.00124463
  Iterations, force evaluations = 46 83

MPI task timing breakdown:
Section |  min time  |  avg time  |  max time  |%varavg| %total
---------------------------------------------------------------
Pair    | 0.11518    | 0.11518    | 0.11518    |   0.0 | 86.94
Kspace  | 0.011051   | 0.011051   | 0.011051   |   0.0 |  8.34
Neigh   | 0.003023   | 0.003023   | 0.003023   |   0.0 |  2.28
Comm    | 0.0008631  | 0.0008631  | 0.0008631  |   0.0 |  0.65
Output  | 0          | 0          | 0          |   0.0 |  0.00
Modify  | 0          | 0          | 0          |   0.0 |  0.00
Other   |            | 0.002359   |            |       |  1.78

Nlocal:    500 ave 500 max 500 min
Histogram: 1 0 0 0 0 0 0 0 0 0
Nghost:    3254 ave 3254 max 3254 min
Histogram: 1 0 0 0 0 0 0 0 0 0
Neighs:    57712 ave 57712 max 57712 min
Histogram: 1 0 0 0 0 0 0 0 0 0

Total # of neighbors = 57712
Ave neighs/atom = 115.424
Neighbor list builds = 3
Dangerous builds = 0


#heating
timestep 0.001 #picoseconds
velocity all create 5000 1

fix 1 all nvt temp 5000 5000 0.1
fix 2 all deform 1 x final 0 17.8022 y final 0 17.8022 z final 0 17.8022 units box
thermo 50
thermo_style custom step cpu temp press ke pe etotal vol
thermo_modify lost ignore
run 500000
PPPM initialization ...
  using 12-bit tables for long-range coulomb (src/kspace.cpp:323)
  G vector (1/distance) = 0.154195
  grid = 4 4 4
  stencil order = 5
  estimated absolute RMS force accuracy = 0.00124323
  estimated relative force accuracy = 8.63378e-05
  using double precision FFTW3
  3d grid and FFT values/proc = 729 64
Per MPI rank memory allocation (min/avg/max) = 4.787 | 4.787 | 4.787 Mbytes
Step CPU Temp Press KinEng PotEng TotEng Volume 
      46            0         5000    36449.618    322.50406    17.382148    339.88621        15625 
      50    0.0050113    4972.9542    36581.762    320.75959    19.117044    339.87663    15624.892 
     100    0.0634161    4314.0108    51292.816     278.2572    69.670249    347.92745    15623.542 
     150    0.1228151    4629.9082    51166.848    298.63284    68.744651    367.37749    15622.193 
     200    0.1837062    4847.7689    52568.931    312.68503    66.799106    379.48414    15620.844 
     250    0.2435995    5029.1731    51929.141    324.38575    66.078803    390.46456    15619.494 
     300    0.3053065    5012.2209    55897.729    323.29232     76.79575    400.08807    15618.145 
     350    0.3687313    5136.7887    56879.559    331.32705    76.662466    407.98951    15616.796 
     400    0.4316087    5106.3443    58071.783    329.36335    83.149909    412.51326    15615.447 
     450    0.4940268    5132.3749    57867.629    331.04235    80.541489    411.58384    15614.098 
     500    0.5580621    5015.7835    56630.667    323.52211    79.807571    403.32968    15612.749 
     550    0.6217489     4952.499    54699.596    319.44021    72.341003    391.78121      15611.4 
     600    0.6853374    4795.1892    53731.418     309.2936    73.325574    382.61918    15610.051 
     650    0.7470518    4735.2084    53676.137    305.42479    74.969213      380.394    15608.703 
     700     0.810147    4824.5395    54952.991    311.18672    75.796599    386.98332    15607.354 
     750    0.8804006    5141.5804    54159.985    331.63611    68.449176    400.08529    15606.006 
     800    0.9478339    5148.5137    56033.849    332.08332     75.90388     407.9872    15604.657 
     850    1.0122401    5157.7781    56891.291    332.68088    76.847808    409.52869    15603.309 
     900    1.0765219    5128.3957    56329.236    330.78569    77.008251    407.79394     15601.96 
     950    1.1406007    5110.2405    55802.317    329.61467    74.671035     404.2857    15600.612 
    1000    1.2052148    5048.4214    54989.575    325.62728    73.409644    399.03693    15599.264 
    1050    1.2666203    5050.0014    53255.457    325.72919    68.141511     393.8707    15597.916 
    1100    1.3267808    5022.2369    52578.438    323.93836    65.952568    389.89093    15596.568 
    1150    1.3912915    4806.2579    55170.407    310.00754    77.348257    387.35579     15595.22 
    1200    1.4580044    4757.4887    57032.584    306.86189    82.599733    389.46162    15593.872 
    1250    1.5228782    5111.4963    55814.502    329.69566    74.886589    404.58225    15592.524 
    1300    1.5854475    5399.5482    56255.993    348.27525    72.502376    420.77762    15591.177 
    1350    1.6477858    5345.6977    58199.646    344.80184    78.989374    423.79122    15589.829 
    1400    1.7115016    5276.7322    56800.212    340.35352    76.173568    416.52708    15588.482 
    1450    1.7751859    4964.0135    57258.447     320.1829    82.516293    402.69919    15587.134 
    1500    1.8388853    4973.4417    54311.662    320.79103    72.849455    393.64048    15585.787 
    1550    1.9041025    4966.3591    53134.985    320.33419    68.880894    389.21509     15584.44 
    1600    1.9694067    4870.9055     54048.13    314.17736    73.305761    387.48313    15583.092 
    1650    2.0340538    4997.5331    52778.353    322.34495    67.075456     389.4204    15581.745 
    1700    2.0972074     5019.164    53785.851    323.74016    69.966901    393.70706    15580.398 
    1750    2.1630362    4986.0676    56504.364    321.60541    79.957206    401.56262    15579.051 
    1800    2.2346893    5246.3626    55949.323    338.39465    73.472208    411.86686    15577.704 
    1850     2.303194    5479.4089    54788.778    353.42633    66.080839    419.50716    15576.357 
    1900    2.3691068    5122.5353    59180.748    330.40769    85.886103    416.29379    15575.011 
    1950    2.4434735    4988.0146    55657.774      321.731    77.512288    399.24328    15573.664 
    2000    2.5073804    4812.4854    54404.549    310.40922    74.932701    385.34192    15572.317 
    2050    2.5709401    4781.1915    53894.907    308.39074    72.825673    381.21641    15570.971 
    2100    2.6363282     4757.021    55486.821    306.83172     77.88192    384.71364    15569.624 
    2150    2.7053209     5004.811    53968.851    322.81437    72.727417    395.54179    15568.278 
    2200    2.7715731    5004.7971    58868.956    322.81348    83.810387    406.62387    15566.932 
    2250    2.8364848    5153.3206    57636.653    332.39336    81.619902    414.01327    15565.586 
    2300    2.9023003    5320.3145    56002.899    343.16461    72.348968    415.51358     15564.24 
    2350    2.9681879    5126.2512    57392.124    330.64737    79.462723    410.11009    15562.893 
    2400    3.0348552    4961.0702    57088.599    319.99306    81.635109    401.62816    15561.548 
    2450    3.1012241    4838.4111    57455.106    312.08145    83.691119    395.77257    15560.202 
    2500     3.167578    4969.8124    55140.858    320.55694    74.889038    395.44598    15558.856 
    2550    3.2390019    4906.8692    56419.266    316.49705    80.501825    396.99887     15557.51 
    2600    3.3078618    5100.8739    54617.147    329.01051    69.487142    398.49765    15556.164 
    2650    3.3798868    5025.1619    54993.684    324.12702    74.546896    398.67392    15554.819 
    2700    3.4501569    5025.7379    55477.636    324.16418    74.008299    398.17248    15553.473 
    2750    3.5207179     4958.786    56106.302    319.84573    77.112754    396.95848    15552.128 
    2800    3.5916539    4966.8649    56219.489    320.36682     77.45487    397.82169    15550.783 
    2850    3.6635831    4901.2489    58179.166    316.13453    85.219007    401.35354    15549.437 
    2900    3.7344162    5282.6492    54863.327    340.73517     69.93218    410.66735    15548.092 
    2950    3.8082261    5219.8451    59426.854    336.68425    83.924181    420.60843    15546.747 
    3000    3.8806206    5472.2527    56551.573    352.96474    71.589201    424.55395    15545.402 
    3050    3.9449337    5195.5907    57479.601    335.11982     78.51148     413.6313    15544.057 
    3100    4.0066307    5042.7491    55168.443    325.26141    70.120362    395.38178    15542.712 
    3150    4.0687543    4841.0702    54097.043    312.25296    73.808413    386.06138    15541.367 
    3200    4.1343777    4808.9085    54581.858    310.17851    74.632288    384.81079    15540.023 
    3250     4.213227      4887.18    55250.024    315.22708    73.671869    388.89895    15538.678 
    3300    4.2797194    5038.2502    54550.387    324.97123    71.224689    396.19592    15537.333 
    3350    4.3441887    5052.3004    56946.612    325.87748    77.976133    403.85361    15535.989 
    3400    4.4112953    5202.0213    55920.859     335.5346    74.784766    410.31936    15534.644 
    3450     4.480175    5228.0859    57473.098    337.21579    75.867054    413.08284      15533.3 
    3500    4.5499686    5072.2066    57956.528    327.16144     82.40012    409.56156    15531.956 
    3550    4.6212457    4963.7102    56005.369    320.16334    75.249247    395.41258    15530.612 
    3600    4.6926809    4775.4805    52978.193    308.02237    71.232839    379.25521    15529.268 
    3650    4.7601248    4653.2749    54375.545    300.14001    73.798863    373.93887    15527.923 
    3700    4.8266066     4820.848    52243.523    310.94861    67.512539    378.46115     15526.58 
    3750      4.89145    4955.3057     54552.54    319.62124    69.423402    389.04464    15525.236 
    3800    4.9580015    4905.7579    57627.869    316.42537    83.146859    399.57223    15523.892 
    3850    5.0235318    5142.8171    56139.573    331.71588    75.062347    406.77823    15522.548 
    3900    5.0913498    5168.0632      56577.9    333.34428     74.61713    407.96141    15521.204 
    3950    5.1650063    5211.2867    54581.704    336.13222    69.071521    405.20375    15519.861 
    4000    5.2414667    5100.8382    55491.439    329.00821    72.588878    401.59708    15518.517 
    4050    5.3117362    5087.8802    53921.539    328.17241    69.128015    397.30042    15517.174 
    4100    5.3794549    4968.4929    55185.123    320.47183    72.612036    393.08386    15515.831 
    4150    5.4486205     4829.762    56099.057    311.52357    79.381584    390.90516    15514.487 
    4200    5.5133442     4960.216    53882.381    319.93796    71.895619    391.83358    15513.144 
    4250    5.5790297    4989.4606    54595.897    321.82426    71.518205    393.34247    15511.801 
    4300    5.6465123     4980.353    55300.821    321.23682    73.718356    394.95517    15510.458 
    4350    5.7140909    4925.4229    56140.845    317.69378    79.206746    396.90052    15509.115 
    4400    5.7811189    5044.4944    55890.948    325.37399    73.602664    398.97665    15507.772 
    4450    5.8461001    5117.7487      53958.2    330.09895    70.172801    400.27175     15506.43 
    4500    5.9154441    4967.7574     56440.91    320.42439    78.510795    398.93518    15505.087 
    4550    5.9854863    5017.9355    54880.255    323.66092    71.007634    394.66855    15503.744 
    4600    6.0519585      4972.58    53222.773    320.73545    67.747623    388.48307    15502.402 
    4650    6.1162316    4794.1679     54763.81    309.22773    73.900932    383.12866    15501.059 
    4700    6.1812379    4768.0938    55468.435    307.54592    76.516584    384.06251    15499.717 
    4750     6.246363    4906.1958    55776.974    316.45361    78.342362    394.79597    15498.374 
    4800    6.3112944    5244.9659    56247.314    338.30456    72.151677    410.45624    15497.032 
    4850     6.377517    5317.9284    56569.415     343.0107    73.747195     416.7579     15495.69 
    4900    6.4424826    5305.0966    55326.067    342.18304    70.429723    412.61276    15494.348 
    4950    6.5075003    5032.1635    56577.548    324.57863    75.856975    400.43561    15493.006 
    5000    6.5739946    4797.7771    56561.573    309.46052    81.303523    390.76404    15491.664 
    5050    6.6338519    4867.2922    55698.954     313.9443    75.764703    389.70901    15490.322 
    5100    6.6944986    4967.9868    55252.896    320.43919    72.141899    392.58108     15488.98 
    5150    6.7559928    5047.0435    54766.631    325.53841    72.226536    397.76494    15487.639 
    5200    6.8173938    4997.5309     57692.25     322.3448    79.619331    401.96414    15486.297 
    5250     6.879526    5101.7193     56680.24    329.06504    77.130596    406.19563    15484.955 
    5300    6.9450735     5017.165    58371.724    323.61122    84.322102    407.93332    15483.614 
    5350    7.0094726    5150.0836    56850.702    332.18457    73.932112    406.11669    15482.273 
    5400     7.074245    4945.1987    55735.357    318.96933    75.677149    394.64648    15480.931 
    5450    7.1374084    4693.4031    54195.801    302.72831    74.567855    377.29617     15479.59 
    5500     7.206941     4665.759    53388.549    300.94525    70.665257     371.6105    15478.249 
    5550    7.2762467    4752.8292    52757.942    306.56134    69.658696    376.22004    15476.908 
    5600    7.3470708    4875.2751    54714.226    314.45921    73.896828    388.35603    15475.567 
    5650    7.4129808    5053.1689    56322.792     325.9335     74.34626    400.27976    15474.226 
    5700    7.4789404    4935.8904    59198.024    318.36894    87.599339    405.96828    15472.885 
    5750    7.5472013    5197.3103    56071.461    335.23074    72.562507    407.79325    15471.544 
    5800    7.6156629    4983.4889    58399.202    321.43908    82.414858    403.85394    15470.203 
    5850    7.6857823    5003.0101    55814.924    322.69822    75.439972    398.13819    15468.863 
    5900    7.7502781    4987.2438    54280.032    321.68128    70.403636    392.08491    15467.522 
    5950    7.8150687    4870.7356    54727.871     314.1664     72.07098    386.23738    15466.182 
    6000      7.88005    4632.2747    56867.791    298.78548    83.776592    382.56207    15464.841 
    6050    7.9458402     4801.841    55853.247    309.72265    76.609591    386.33224    15463.501 
    6100    8.0076826    4993.8681    56910.493    322.10855    76.904897    399.01344    15462.161 
    6150    8.0692869    5108.4822    59018.031    329.50125    83.403763    412.90501    15460.821 
    6200    8.1319628    5312.3215     58168.54    342.64905    79.214791    421.86385    15459.481 
    6250    8.1937441    5222.5611    60461.565    336.85943    84.104791    420.96422    15458.141 
    6300    8.2630787    5149.3777    57858.266    332.13904    79.867318    412.00636    15456.801 
    6350    8.3315716    5055.5883    54822.944    326.08955    71.852049     397.9416    15455.461 
    6400    8.4022681    4900.4411     55150.99    316.08243    71.864342    387.94678    15454.121 
    6450    8.4723509    4798.6762    54968.833    309.51851    75.735375    385.25389    15452.781 
    6500    8.5423778    4928.0657    54052.586    317.86424    70.877834    388.74207    15451.442 
    6550     8.610653     4996.223    55288.148    322.26044    72.472714    394.73316    15450.102 
    6600    8.6763396    4853.5506    59115.646    313.05796     87.65605    400.71401    15448.763 
    6650    8.7395297    5117.5344    58095.497    330.08512    77.186248    407.27137    15447.423 
    6700     8.803779    5188.3454    56487.389    334.65249    74.565649    409.21814    15446.084 
    6750    8.8681632    5164.5394    56406.566    333.11699       72.929    406.04599    15444.745 
    6800     8.935111    5018.0404    56028.964    323.66768    75.122534    398.79022    15443.406 
    6850    9.0005327    4712.0023    57757.482    303.92798    83.055534    386.98351    15442.067 
    6900    9.0708599    4573.6094    53012.851    295.00152    71.662032    366.66356    15440.728 
    6950    9.1434084    4444.2058    50307.375    286.65488    66.167265    352.82215    15439.389 
    7000    9.2164458    4388.6608    53008.781    283.07219    73.638884    356.71107     15438.05 
    7050    9.2823754    4655.6229    52412.555    300.29146    68.178252    368.46971    15436.711 
    7100    9.3430669     4609.707    56833.373    297.32985    82.841264    380.17111    15435.373 
    7150    9.4063228    4938.1644     55938.05    318.51562    74.622996    393.13861    15434.034 
    7200    9.4693407     5148.636     55603.63     332.0912    71.369671    403.46087    15432.695 
    7250    9.5330669    5196.1404    55911.363    335.15528    73.620417     408.7757    15431.357 
    7300    9.5978022    5289.1587    54609.536    341.15503     66.88618    408.04121    15430.019 
    7350    9.6644941    4944.7572    57861.512    318.94086    80.473821    399.41468     15428.68 
    7400    9.7301189    5020.0165    53231.238    323.79514    66.945803    390.74094    15427.342 
    7450    9.7960469    4767.1008    55434.422    307.48187    75.422158    382.90403    15426.004 
    7500     9.861083    4696.4637    55259.511    302.92572    76.444088    379.36981    15424.666 
    7550    9.9242328    4821.8111      54508.7    311.01073    72.068861     383.0796    15423.328 
    7600    9.9891951    5021.0569    56362.978    323.86225    74.488339    398.35059     15421.99 
    7650     10.05583    5275.5753    57937.656    340.27889    77.057825    417.33672    15420.652 
    7700    10.126152    5369.5105     57182.22    346.33779    74.572556    420.91035    15419.314 
    7750    10.192366    5315.1311    56347.837    342.83027    70.303061    413.13333    15417.977 
    7800    10.257514     5092.373    55949.212    328.46219    72.975346    401.43754    15416.639 
    7850    10.321903    4896.0444     55592.33    315.79884    76.709816    392.50866    15415.302 
    7900    10.386378    4915.1124    54417.023    317.02874    71.484126    388.51287    15413.964 
    7950    10.453295    4762.5953    57581.037    307.19127    82.025911    389.21718    15412.627 
    8000    10.523797    4927.1284    56185.452    317.80378    77.102158    394.90594    15411.289 
    8050     10.58641    4955.4171    58645.588    319.62843    84.210418    403.83885    15409.952 
    8100    10.653479    5245.4941    57967.091    338.33863    76.823014    415.16164    15408.615 
    8150    10.720978    5430.3509    57593.499    350.26205    73.478035    423.74008    15407.278 
    8200    10.786569    5392.6662    57987.646    347.83135    74.724971    422.55632    15405.941 
    8250    10.848985    4923.9822    58899.088    317.60085     84.00613    401.60698    15404.604 
    8300    10.912095    4758.5461    56566.324    306.93009    77.981132    384.91122    15403.267 
    8350    10.976428    4749.5027    54833.081    306.34678    75.066464    381.41324    15401.931 
    8400    11.038588    4835.9235    54948.045    311.92099    73.945167    385.86616    15400.594 
    8450     11.10379    4976.4955    56701.391      320.988    75.238044    396.22604    15399.257 
    8500    11.174356    5108.7183    57757.731    329.51648    78.250201    407.76668    15397.921 
    8550    11.244631    5109.7968    59266.695    329.58605    83.476467    413.06251    15396.584 
    8600    11.310509     5135.768    59006.782    331.26121    80.491027    411.75223    15395.248 
    8650    11.376836    5127.2685     57129.76    330.71298    75.820449    406.53343    15393.912 
    8700    11.446855    4921.5533    57143.879    317.44418    80.619338    398.06352    15392.575 
    8750    11.515244    4887.3297     54336.28    315.23674    70.802882    386.03962    15391.239 
    8800    11.581621    4547.9456    56402.598    293.34619    81.317884    374.66407    15389.903 
    8850    11.645796    4591.3154    54066.797    296.14357    74.727697    370.87127    15388.567 
    8900    11.710513    4671.1119    55826.703    301.29051    79.716886     381.0074    15387.231 
    8950    11.775929     5140.304    56545.832    331.55379    73.630385    405.18417    15385.896 
    9000    11.840942    5151.2982    59190.606    332.26292    82.497124    414.76004     15384.56 
    9050    11.901241    5189.5258    59096.885    334.72863    81.371384    416.10002    15383.224 
    9100    11.963843    4941.5475    61757.088    318.73383    92.871943    411.60577    15381.889 
    9150    12.024878    5021.4005    58175.578    323.88441    80.043094    403.92751    15380.553 
    9200    12.086859    4772.7657    59299.576    307.84726    87.022503    394.86977    15379.218 
    9250    12.150094    4868.2631    55715.698    314.00693    75.541255    389.54818    15377.882 
    9300    12.213075    4671.0848    59178.824    301.28877    88.245026    389.53379    15376.547 
    9350    12.280294    5036.9529    55916.622    324.88755    74.461972    399.34952    15375.212 
    9400    12.344351    5143.3295     59309.29    331.74893    82.429906    414.17884    15373.877 
    9450    12.408379     5353.366    59092.979    345.29646    77.749683    423.04614    15372.542 
    9500    12.476151    5364.3623    57776.394    346.00573    74.938847    420.94457    15371.207 
    9550    12.547835    5112.9234    59810.228    329.78771     82.83711    412.62482    15369.872 
    9600     12.61837    4982.4876    59294.253     321.3745    86.095766    407.47026    15368.537 
    9650    12.690286    4985.7177     58987.69    321.58284     83.61533    405.19817    15367.202 
    9700    12.763007       4883.8     60897.35    315.00907    89.605385    404.61445    15365.868 
    9750    12.830593    5138.6873    56961.097    331.44951    75.225387    406.67489    15364.533 
    9800    12.897068     5044.039    58091.309    325.34462    80.988385      406.333    15363.198 
    9850    12.964083    5099.8626    56233.993    328.94528    73.902794    402.84807    15361.864 
    9900    13.030795    4864.4258    57750.924    313.75941     81.26694    395.02635     15360.53 
    9950    13.097561    4870.1706     54053.74    314.12996    71.499648    385.62961    15359.195 
   10000    13.168827    4701.3092    54527.732    303.23826    73.493682    376.73195    15357.861 
   10050    13.232406    4536.5999    55984.073    292.61438    80.619271    373.23365    15356.527 
   10100     13.29545     4655.215    56989.378    300.26515    81.696348     381.9615    15355.193 
   10150    13.361414    5067.5042    56874.659    326.85814    74.610315    401.46845    15353.859 
   10200    13.427989     5147.138    58061.179    331.99458    79.605242    411.59983    15352.525 
   10250    13.492459     5181.709    58183.733    334.22444    78.520556      412.745    15351.191 
   10300    13.557071    5093.2781    58768.008    328.52058    79.412662    407.93324    15349.858 
   10350      13.6253    4911.6572    57730.863    316.80588    81.461342    398.26722    15348.524 
   10400    13.703522    4655.4875    59186.698    300.28273    89.486397    389.76912     15347.19 
   10450    13.779543    4913.5639    55036.142    316.92886    70.998196    387.92706    15345.857 
   10500    13.851157    4934.0851    55304.119     318.2525    72.188877    390.44137    15344.523 
   10550    13.928536    4841.3588    58735.393    312.27158    85.943907    398.21548     15343.19 
   10600    14.022232    5188.9957    59073.864    334.69444    81.126707    415.82115    15341.857 
   10650    14.117757    5396.2905    60289.841    348.06512    82.429836    430.49496    15340.524 
   10700    14.218828    5389.9382    60928.286    347.65539    82.398141    430.05353     15339.19 
   10750     14.34578    5206.4336    58969.723    335.81919    82.705289    418.52448    15337.857 
   10800    14.442671    5089.1397    58362.229    328.25364    80.009808    408.26345    15336.524 
   10850    14.517541    5068.8076    56835.682    326.94221    75.622363    402.56457    15335.192 
   10900     14.58888    4943.6792    57538.018    318.87133    80.380941    399.25227    15333.859 
   10950    14.663564    4957.2076    56957.221    319.74392    77.118558    396.86247    15332.526 
   11000    14.734947     5001.611    55269.871    322.60798    71.118118    393.72609    15331.193 
   11050    14.799242    4926.3283     55561.41    317.75218    73.290381    391.04256    15329.861 
   11100    14.864114    4813.5577    56638.702    310.47838    79.273059    389.75144    15328.528 
   11150    14.935659    4910.7369    57368.195    316.74652    77.255869    394.00239    15327.196 
   11200     15.00228    5220.2186    55041.022    336.70834    69.801872    406.51022    15325.864 
   11250     15.07238    5124.0121    60323.737    330.50294    86.653015    417.15596    15324.531 
   11300    15.142395      5362.73    58080.024    345.90044    75.601816    421.50226    15323.199 
   11350    15.220225    5123.7346    60203.214    330.48504    85.165991    415.65103    15321.867 
   11400    15.299572    5007.6217    58448.774    322.99567    78.846978    401.84264    15320.535 
   11450    15.410192    4836.0731    56301.508    311.93065    76.908657     388.8393    15319.203 
   11500    15.527017    4812.6171    55697.829    310.41771    74.642123    385.05984    15317.871 
   11550    15.623597    4873.4918    55190.191    314.34418    73.466247    387.81043    15316.539 
   11600    15.699969    4859.2472    57891.166    313.42539    79.439328    392.86472    15315.208 
   11650    15.773094    4982.6187    57508.826    321.38295    78.380058    399.76301    15313.876 
   11700    15.852266    4980.3065    58733.508    321.23382     83.63641    404.87023    15312.544 
   11750    15.935378    5042.8617    58757.932    325.26868    81.602279    406.87095    15311.213 
   11800    16.013291    5204.6431    56626.273    335.70371    71.313166    407.01687    15309.881 
   11850    16.091641    5159.2885    55566.289     332.7783    70.970219    403.74852     15308.55 
   11900    16.184141    4929.8276    56633.387    317.97789    74.486398    392.46429    15307.219 
   11950    16.277388    4535.8007    56600.258    292.56283    83.541174    376.10401    15305.888 
   12000    16.359998    4600.2727     54887.18    296.72133    73.664453    370.38578    15304.557 
   12050    16.441868    4629.2355    55234.445    298.58945    77.282562    375.87201    15303.225 
   12100     16.52835    4804.8178     56923.23    309.91465    79.423465    389.33812    15301.895 
   12150    16.623965     5003.627    56951.919      322.738    75.640828    398.37883    15300.564 
   12200    16.760915    4996.3449    58320.163     322.2683    80.229253    402.49755    15299.233 
   12250    16.876141    5129.6237    57858.241     330.8649    75.713028    406.57793    15297.902 
   12300    17.042985     5121.221    57893.798    330.32291     78.68381    409.00672    15296.571 
   12350    17.193729    5173.0421    57629.393    333.66542    73.901342    407.56676    15295.241 
   12400    17.324043    5132.3066    55804.089    331.03794    72.377455     403.4154     15293.91 
   12450    17.469785     5012.591    56371.428    323.31619    72.679487    395.99568     15292.58 
   12500    17.623095    4755.0261    56725.794    306.70305    80.565906    387.26895     15291.25 
   12550    17.795945    4678.7041    57642.281    301.78022    80.996861    382.77708    15289.919 
   12600    17.959012    4805.3725    55075.504    309.95043    75.024165    384.97459    15288.589 
   12650    18.086598    4906.6544    58883.847    316.48319    81.432319    397.91551    15287.259 
   12700    18.195633    5144.6488    59519.487    331.83403    83.870509    415.70454    15285.929 
   12750    18.302153    5289.1541    60705.416    341.15473    82.084519    423.23925    15284.599 
   12800    18.437529    5128.4694    62206.335    330.79044    89.977278    420.76772    15283.269 
   12850    18.576318    5095.7857    59172.342    328.68232    84.180123    412.86244    15281.939 
   12900    18.748074     4999.908    58444.395    322.49813    80.510122    403.00825     15280.61 
   12950    18.979643    4953.1664    57116.458    319.48326    76.541306    396.02456     15279.28 
   13000    19.159837    5025.7916    54693.738    324.16764    68.589815    392.75746    15277.951 
   13050     19.27832    4974.6319    55039.708     320.8678      71.4734     392.3412    15276.621 
   13100    19.404315    4905.2569    56751.943    316.39306    78.127659    394.52072    15275.292 
   13150    19.532618    4990.1893    56010.266    321.87127    75.613231     397.4845    15273.962 
   13200    19.672711    4961.8312    56818.339    320.04214    79.071168    399.11331    15272.633 
   13250     19.85151    4991.9293    57439.008    321.98349    78.661867    400.64536    15271.304 
   13300    19.966702    5005.5863    58600.912    322.86438    80.586871    403.45125    15269.975 
   13350    20.075953    5062.4734    60611.458    326.53364    85.216853     411.7505    15268.646 
   13400    20.216298    5356.2585    61093.211    345.48303    83.897645    429.38067    15267.317 
   13450    20.317286     5514.339    60403.235    355.67934     81.37157    437.05091    15265.988 
   13500    20.430823    5373.5286     59724.07    346.59696    80.791457    427.38842    15264.659 
   13550    20.529351    5052.4422    59432.911    325.88663    82.865233    408.75186     15263.33 
   13600    20.659627    4924.7036    58487.363    317.64738    79.361555    397.00894    15262.002 
   13650    20.840864    4841.4872     56433.31    312.27986    78.626318    390.90618    15260.673 
   13700    21.000689    4894.4969    56591.373    315.69902    73.712258    389.41128    15259.345 
   13750     21.12227    4762.5378    58093.716    307.18756    85.155557    392.34312    15258.016 
   13800    21.228845    5077.5249    55957.799    327.50448    74.183197    401.68768    15256.688 
   13850    21.351939    5178.6997    59929.498    334.03034    78.515364     412.5457     15255.36 
   13900    21.455331    5226.7015    59341.627    337.12649    81.016925    418.14342    15254.031 
   13950    21.552549    5040.0779      60938.4    325.08912     91.23283    416.32195    15252.703 
   14000    21.656905    5184.7754    56566.516    334.42222    73.837293    408.25952    15251.375 
   14050    21.773123    4728.5567    59336.496    304.99575    83.724033    388.71978    15250.047 
   14100    21.903919    4611.0489    55968.806     297.4164    80.106517    377.52292     15248.72 
   14150    22.016408    4639.9745    56443.186    299.28212    79.774999    379.05712    15247.392 
   14200    22.128893    4809.9428    57189.808    310.24522    77.601174    387.84639    15246.064 
   14250    22.222484    5040.9758     55688.34    325.14704    71.462015    396.60905    15244.736 
   14300    22.295643    4927.0553    58242.065    317.79907    84.123516    401.92259    15243.409 
   14350    22.370297    5043.3244    58050.887    325.29852    81.019168    406.31769    15242.081 
   14400    22.453078    5213.6803    56165.551    336.28661    71.645974    407.93259    15240.754 
   14450    22.536057    5118.0342    58095.973    330.11737    74.775987    404.89335    15239.427 
   14500    22.605758    4925.6676     58706.62    317.70956     80.22129    397.93085    15238.099 
   14550    22.674876    4772.1433    56672.631    307.80712    79.190901    386.99802    15236.772 
   14600    22.756031     4599.522    55383.525     296.6729    76.990694     373.6636    15235.445 
   14650    22.844359    4517.4573    55444.918    291.37967    76.101759    367.48142    15234.118 
   14700    22.921997    4734.2242    52622.139    305.36131    68.588175    373.94948    15232.791 
   14750    22.997207    4894.6381     57779.55    315.70813    77.450053    393.15819    15231.464 
   14800    23.071327    5101.5761    58059.691     329.0558    77.935987    406.99179    15230.137 
   14850    23.158809    5194.2995     57777.82    335.03654    75.654858     410.6914    15228.811 
   14900    23.234066    5195.2572    57456.428    335.09831    73.730397    408.82871    15227.484 
   14950    23.306296    4974.0524    58295.345    320.83042    82.057543    402.88796    15226.158 
   15000    23.381375     4945.982     57893.39    319.01986    77.811863    396.83172    15224.831 
   15050    23.465808    4808.9611    58458.265     310.1819    83.640917    393.82281    15223.505 
   15100     23.54495    5008.4253    56840.909     323.0475    71.485056    394.53256    15222.178 
   15150     23.63202    4955.0288    57242.294    319.60338    77.518644    397.12203    15220.852 
   15200    23.718862    5104.4679    57130.793    329.24233    75.559266    404.80159    15219.526 
   15250    23.827727    5242.5359    58160.672    338.14783    76.809764    414.95759      15218.2 
   15300    23.923889    5283.3327    58864.991    340.77925    79.242164    420.02142    15216.874 
   15350    24.006131    5270.9079    60328.902    339.97784    77.958749    417.93659    15215.548 
   15400    24.109541    5007.0564    58678.441     322.9592    83.097029    406.05623    15214.222 
   15450     24.20237    4776.9424    59677.699    308.11666    82.945668    391.06233    15212.896 
   15500      24.2828    4759.9832    55934.635    307.02278     77.01756    384.04034     15211.57 
   15550    24.359739    4823.0228    55281.423    311.08889    74.305396    385.39429    15210.245 
   15600     24.43278    4767.8591    59770.449    307.53078    84.139375    391.67016    15208.919 
   15650    24.532923    4975.0762    58070.341    320.89646    80.664606    401.56106    15207.594 
   15700    24.631107    5168.0985    56802.943    333.34655    73.385942    406.73249    15206.268 
   15750    24.706896    5071.4197    59056.429    327.11069    78.546909     405.6576    15204.943 
   15800    24.784615    4995.7739    58036.862    322.23147    80.803486    403.03496    15203.618 
   15850    24.858238     4874.064    59984.822    314.38109    87.043357    401.42444    15202.293 
   15900    24.947997    4998.9309    58055.323    322.43511    80.471634    402.90674    15200.968 
   15950    25.031603    5007.5124    59422.092    322.98862      81.7837    404.77232    15199.642 
   16000    25.106156     5070.765    59933.213    327.06846      81.3172    408.38566    15198.318 
   16050     25.17455    5215.0773    59396.856    336.37672    81.500172    417.87689    15196.993 
   16100    25.253285    5318.5495    60663.217    343.05076    85.273868    428.32463    15195.668 
   16150    25.322344    5415.9913     60134.17    349.33584    80.518586    429.85442    15194.343 
   16200    25.390412    5129.8663    60671.125    330.88054    86.424058     417.3046    15193.019 
   16250    25.468126    4887.8965    60428.706     315.2733    85.972539    401.24584    15191.694 
   16300    25.558647     4726.892    60221.941    304.88838    89.015863    393.90424    15190.369 
   16350    25.632801    4921.7813    56636.014    317.45889     76.87042    394.32931    15189.045 
   16400    25.704446    4939.1571    58013.213    318.57964    81.013231    399.59287    15187.721 
   16450    25.780038    5120.3911    57848.077    330.26939    75.287843    405.55723    15186.397 
   16500    25.866885    5142.5029    59578.803    331.69561    77.469223    409.16484    15185.072 
   16550    25.938627    5021.1614    60398.798    323.86899    84.976649    408.84564    15183.748 
   16600    26.021329    4931.6913    61014.122    318.09809    89.163177    407.26127    15182.424 
   16650     26.10234    5040.1549    57881.668    325.09409    79.205983    404.30007      15181.1 
   16700     26.18397    4983.1317    58379.442    321.41604    77.520448    398.93649    15179.776 
   16750    26.271834    4953.9637    56397.263    319.53469    73.722967    393.25765    15178.453 
   16800    26.346876    4787.0206    57147.339    308.76672     80.70286    389.46958    15177.129 
   16850     26.41381    4830.8017    57098.326    311.59064    80.021479    391.61211    15175.805 
   16900    26.483909    4967.4474    58775.228    320.40439    79.574376    399.97877    15174.482 
   16950    26.550554    5175.3297    59710.751    333.81297     78.19585    412.00882    15173.158 
   17000    26.620445    5284.2621    59503.604     340.8392    79.916546    420.75574    15171.835 
   17050    26.683629    5267.4597    59309.402    339.75543    81.203075     420.9585    15170.512 
   17100    26.750995    5050.2028    60923.843    325.74218    87.634253    413.37643    15169.188 
   17150    26.824091    4938.9901    57804.676    318.56888    80.092301    398.66118    15167.865 
   17200    26.889827    4691.9558    57723.125    302.63496    82.623413    385.25838    15166.542 
   17250    26.956088      4775.65    57512.758    308.03331    75.782377    383.81568    15165.219 
   17300    27.029139    4848.4931    57052.523    312.73174    75.323244    388.05499    15163.896 
   17350    27.093775    4979.9561    56345.495    321.21122    73.421613    394.63283    15162.573 
   17400    27.162285     4982.839    58207.774    321.39716    80.518693    401.91586     15161.25 
   17450    27.234368    5200.3864    57048.414    335.42915    72.809395    408.23854    15159.928 
   17500    27.306089    5060.4003     61669.32    326.39993    84.420275     410.8202    15158.605 
   17550    27.377317    5104.1789     59608.85    329.22369    82.551673    411.77536    15157.282 
   17600     27.45109    5019.9391     59259.39    323.79015    83.580056     407.3702     15155.96 
   17650    27.522552    4962.5287    56282.844    320.08713    75.248178    395.33531    15154.638 
   17700     27.59186    4748.7839    55375.115    306.30042    73.897843    380.19826    15153.315 
   17750    27.660885     4818.269    53551.812    310.78226    64.888478    375.67074    15151.993 
   17800    27.731308    4788.2062    54431.146    308.84319    70.859164    379.70235    15150.671 
   17850    27.800779    5013.1771    53901.485    323.35399    68.393729    391.74772    15149.349 
   17900    27.869255    5101.0956    56279.673    329.02481    73.460913    402.48572    15148.027 
   17950    27.941875    5002.1845    59494.879    322.64497    84.716545    407.36151    15146.705 
   18000     28.01263    5017.7236    60848.242    323.64725    85.742381    409.38963    15145.383 
   18050    28.077156    5081.2552    61181.784    327.74509    82.551128    410.29622    15144.061 
   18100    28.139414    5123.2321    58154.971    330.45263    77.083328    407.53596    15142.739 
   18150    28.204508    5020.2613    57601.068    323.81093    78.223061    402.03399    15141.418 
   18200     28.27251    4993.2712    56018.034    322.07005    73.412753     395.4828    15140.096 
   18250    28.345703     4705.101    57913.828    303.48284    84.165415    387.64825    15138.775 
   18300    28.417225    4508.0143    59814.416    290.77058    93.147295    383.91788    15137.453 
   18350    28.490465     4852.129     56590.65    312.96626    79.632282    392.59855    15136.132 
   18400    28.563685    5146.5962    58251.327    331.95964    78.794438    410.75408    15134.811 
   18450    28.635454     5206.311    60601.615    335.81129    85.341958    421.15325     15133.49 
   18500    28.706928    5282.3479    59574.211    340.71573    79.812326    420.52806    15132.168 
   18550    28.779755    5077.7989    62193.633    327.52216    85.016901    412.53906    15130.847 
   18600    28.860781    5105.2158    55399.921    329.29057     72.34994    401.64051    15129.527 
   18650    28.931857    5002.6923    54521.947    322.67772     70.10164    392.77936    15128.206 
   18700     29.00014    4747.5951    58006.177    306.22374    82.447139    388.67088    15126.885 
   18750    29.069842    4847.5433    57045.692    312.67048    78.887882    391.55836    15125.564 
   18800    29.143069    4977.1749     56571.92    321.03182    76.677694    397.70952    15124.244 
   18850    29.218358    4947.7717    59405.005    319.13529    83.763803     402.8991    15122.923 
   18900    29.290004    4960.8081    62784.921    319.97615    86.192904    406.16906    15121.602 
   18950    29.363256    5122.0465    57250.991    330.37616    78.101595    408.47775    15120.282 
   19000    29.436983    5007.4348    60037.516    322.98361    84.592154    407.57576    15118.962 
   19050    29.504619    5036.1473    58242.447    324.83559    79.961022    404.79661    15117.642 
   19100    29.569667    4814.9947    60260.096    310.57107    91.390811    401.96188    15116.321 
   19150    29.637016    5047.9773    58495.722    325.59864    75.190663     400.7893    15115.001 
   19200    29.705247    4856.7806     59226.12     313.2663    86.949284    400.21558    15113.681 
   19250    29.777805    5026.6224    57727.375    324.22123      79.7098    403.93103    15112.361 
   19300     29.84943    5167.6312    60141.174    333.31641    82.345426    415.66183    15111.041 
   19350    29.923282     5277.678    61681.467    340.41452    89.139595    429.55411    15109.722 
   19400    29.993051    5455.9588    60783.069    351.91377    81.387209    433.30098    15108.402 
   19450    30.066279    5249.8722    60270.863    338.62102    83.472461    422.09348    15107.082 
   19500    30.137517    5021.6633    58583.085    323.90136    81.736415    405.63778    15105.763 
   19550    30.206528    5039.7244    54985.187    325.06632    70.778585     395.8449    15104.443 
   19600    30.274128    4773.6577    58355.684     307.9048     83.61405    391.51885    15103.124 
   19650    30.343538      4768.87    59458.428    307.59599    86.973904    394.56989    15101.804 
   19700    30.413546    5002.1625     58281.23    322.64355    80.744243    403.38779    15100.485 
   19750     30.48059    5087.0168    60258.142    328.11671    83.606761    411.72348    15099.166 
   19800    30.551395    5245.2376    58666.031    338.32209    76.987561    415.30965    15097.847 
   19850    30.618543    5027.7069    61099.447    324.29118    87.620976    411.91216    15096.528 
   19900    30.686573    5009.2225    58461.998    323.09892    78.729891    401.82881    15095.209 
   19950    30.757074    4738.1821    57308.438    305.61659    77.738309     383.3549     15093.89 
   20000    30.830724    4518.3769    59172.779    291.43898    82.357729    373.79671    15092.571 
   20050     30.89484    4576.7394    57899.646    295.20341    82.434736    377.63815    15091.253 
   20100    30.959399    4788.1582    56988.182    308.84009     80.19127    389.03136    15089.934 
   20150    31.024626    4866.2628    58491.867     313.8779    84.952158    398.83006    15088.615 
   20200    31.091489     4869.497    61255.631    314.08651    91.259599    405.34611    15087.297 
   20250    31.162676    5059.0911    60085.553    326.31549     84.12183    410.43732    15085.979 
   20300    31.227561    5227.0719    58488.858    337.15038    74.271968    411.42235     15084.66 
   20350    31.292124    5040.0196    59918.357    325.08536    82.989604    408.07496    15083.342 
   20400    31.357003    4861.3901    60005.332    313.56361    88.388587     401.9522    15082.024 
   20450    31.422626    4718.9582    59473.681    304.37664    88.103526    392.48017    15080.706 
   20500    31.490611    4741.3753    56739.774    305.82256    78.001818    383.82438    15079.388 
   20550    31.557104    4773.0823    54562.072    307.86768    70.605529    378.47321     15078.07 
   20600    31.623642     4650.065    58123.599    299.93297    79.897837     379.8308    15076.752 
   20650    31.691279    5045.2469    56492.963    325.42252      70.6876    396.11012    15075.434 
   20700    31.757928      5144.24    59697.047    331.80766    81.189082    412.99674    15074.116 
   20750     31.82469    5219.8919     60143.56    336.68727     82.76209    419.44936    15072.799 
   20800    31.890871    5211.8713    59982.181    336.16994    82.330026    418.49996    15071.481 
   20850    31.957188    5083.8669     59672.72    327.91354    83.345738    411.25928    15070.164 
   20900      32.0238    4867.1069     59649.31    313.93235    85.668866    399.60121    15068.846 
   20950     32.09178    4813.9011    57956.046    310.50053     81.11159    391.61212    15067.529 
   21000    32.158337    4878.8185    57232.426    314.68775    76.744961    391.43272    15066.212 
   21050    32.221372    4849.0478    60042.139    312.76752    83.012785     395.7803    15064.894 
   21100     32.28381    4895.4574    59933.885    315.76098    86.921678    402.68266    15063.577 
   21150    32.346033     5080.317    59466.446    327.68457    81.852343    409.53692     15062.26 
   21200    32.410672    5171.2756    59230.319    333.55147    78.415988    411.96746    15060.943 
   21250    32.476928    4991.9517    62883.859    321.98494    88.562438    410.54738    15059.627 
   21300    32.542054    5141.1631    58960.176     331.6092    77.681757    409.29095     15058.31 
   21350    32.609592    5116.0734    58102.362    329.99089    77.394612    407.38551    15056.993 
   21400    32.675183    4969.6973    59075.667    320.54952    82.494983     403.0445    15055.676 
   21450    32.740959    4953.8318    59516.731    319.52618    79.659809    399.18599     15054.36 
   21500    32.807235    4907.9157     59105.07    316.56455    80.644754     397.2093    15053.043 
   21550    32.873308    5000.8155    56816.462    322.55666    75.772884    398.32955    15051.727 
   21600    32.945428    4906.3687    59448.639    316.46477    85.063774    401.52854    15050.411 
   21650    33.013572    4952.9102    61350.532    319.46673    89.290449    408.75718    15049.094 
   21700    33.084832    5256.4158    60557.195    339.04309    81.380178    420.42327    15047.778 
   21750    33.150347    5424.1148    61146.746    349.85981    78.630511    428.49032    15046.462 
   21800     33.21561    5403.3296    61268.927    348.51915    77.804353     426.3235    15045.146 
   21850    33.282677    5025.9055    62203.497    324.17499    87.141432    411.31642     15043.83 
   21900    33.348025    4881.2625    59930.303     314.8454    80.923942    395.76934    15042.514 
   21950    33.415169    4930.8155    56863.051     318.0416    72.960714    391.00232    15041.198 
   22000    33.483166    4782.4252    60166.889    308.47031    82.969524    391.43984    15039.883 
   22050    33.545736    4824.0899    60588.355    311.15772     85.18424    396.34196    15038.567 
   22100     33.61128      5015.44      60197.1    323.49996    80.967412    404.46737    15037.251 
   22150    33.673985    5103.8135    61479.182    329.20011    81.976462    411.17658    15035.936 
   22200     33.73753    5227.1727    58860.006    337.15689    77.520865    414.67775    15034.621 
   22250    33.800631    5254.5226    57504.952    338.92097     72.29887    411.21984    15033.305 
   22300    33.863183    4882.6259    58391.756    314.93334    81.102358     396.0357     15031.99 
   22350    33.927744    4639.2614    57037.945    299.23613    79.606353    378.84248    15030.675 
   22400    33.993593     4573.662    56649.315    295.00491    80.694691     375.6996     15029.36 
   22450    34.059146    4762.1338    55423.568     307.1615    74.406446    381.56795    15028.045 
   22500    34.123837    4804.1262    57223.594    309.87004    79.764973    389.63502     15026.73 
   22550    34.190495    4859.5113    59360.676    313.44243    84.909417    398.35185    15025.415 
   22600    34.256355    4984.4099    59661.072    321.49849    85.265357    406.76385      15024.1 
   22650    34.322342    5077.7143    60384.698    327.51669    85.120281    412.63698    15022.785 
   22700    34.389076    5015.3246    62311.705    323.49251    91.276045    414.76855    15021.471 
   22750    34.469466    5142.7701    60128.209    331.71285    81.934032    413.64688    15020.156 
   22800    34.535196    5136.9011     58087.34    331.33429    75.325544    406.65983    15018.842 
   22850     34.60187    4857.0831    58061.032    313.28581     79.77462    393.06043    15017.527 
   22900    34.668007    4677.9617    56768.868    301.73233    80.058331    381.79066    15016.213 
   22950    34.733259    4687.9851    56291.741    302.37885     77.00425     379.3831    15014.899 
   23000    34.799764    4775.6757    58443.633    308.03496    80.292169    388.32713    15013.584 
   23050    34.861116    5187.8469    59156.028    334.62034    75.528721    410.14906     15012.27 
   23100    34.927841    5309.9139    59395.916    342.49376    76.916449    419.41021    15010.956 
   23150    34.991264    5211.4841    59978.883    336.14496    80.943104    417.08806    15009.642 
   23200     35.06119    5028.0691     62400.48    324.31454    85.338746    409.65329    15008.328 
   23250    35.125182    5015.1522    57999.433    323.48139    76.882484    400.36387    15007.015 
   23300    35.190132    4917.0661    57469.448    317.15476    77.660668    394.81543    15005.701 
   23350    35.257402    4909.5468     56757.36    316.66976    77.107396    393.77715    15004.387 
   23400    35.322634    4852.0227    59361.919     312.9594    83.751514    396.71092    15003.074 
   23450    35.387869    5070.0514    58290.387    327.02244    78.774365     405.7968     15001.76 
   23500     35.45464    5103.5243    62963.402    329.18146    90.221423    419.40288    15000.447 
   23550    35.527252    5274.9764     64447.41    340.24026    90.190725    430.43099    14999.133 
   23600    35.602476    5374.7172     63729.57    346.67362    85.027246    431.70087     14997.82 
   23650     35.68047    5043.8462    62789.045    325.33218    92.476583    417.80876    14996.507 
   23700    35.755138    4943.9126     58656.87    318.88638    80.015643    398.90202    14995.194 
   23750    35.830386    4890.1926    58117.921    315.42139    78.077696    393.49909    14993.881 
   23800    35.904718    4893.9831    57296.918    315.66588    77.820756    393.48664    14992.568 
   23850      35.9744    4910.2038    57460.613    316.71213    78.424084    395.13622    14991.255 
   23900    36.042096    4952.5475    58595.508    319.44333    80.428074    399.87141    14989.942 
   23950     36.10935    4867.5721    63368.316    313.96235     94.04769    408.01004    14988.629 
   24000    36.183718    5212.6352    60543.715    336.21921    81.622381    417.84159    14987.317 
   24050    36.251242     5234.481    63039.037    337.62828    84.855161    422.48344    14986.004 
   24100    36.318539    5317.9234    59980.178    343.01038     76.32493    419.33531    14984.692 
   24150    36.386598    5093.7064    57967.943     328.5482    76.687886    405.23608    14983.379 
   24200    36.455529    4903.4378    57010.207    316.27572    72.022994    388.29872    14982.067 
   24250    36.521777    4675.3739     58142.05    301.56542    80.587017    382.15243    14980.755 
   24300    36.586148    4655.6848    58829.306    300.29545    84.309439    384.60489    14979.443 
   24350    36.650475    4884.3426    58692.707    315.04407    78.052723    393.09679     14978.13 
   24400    36.716881    4936.6785    59405.607    318.41977    83.707119    402.12689    14976.818 
   24450     36.78043    4907.7143    62897.653    316.55156    93.206715    409.75828    14975.506 
   24500    36.845771    5090.0268    62330.641    328.31087    87.317646    415.62851    14974.195 
   24550    36.910839    5198.1826    61387.977      335.287    82.172586    417.45959    14972.883 
   24600     36.97887    5139.6066    60176.989     331.5088    81.697653    413.20645    14971.571 
   24650    37.044685    4984.0734    60015.854    321.47678    80.782068    402.25885    14970.259 
   24700     37.11107     4781.434    59270.858    308.40637    81.949964    390.35634    14968.948 
   24750     37.17665    4723.0349    57601.414    304.63959    79.256457    383.89605    14967.636 
   24800    37.241114    4762.3336    57323.871    307.17439     77.26332    384.43771    14966.325 
   24850    37.308434    5097.0279    57890.127    328.76244     72.22357    400.98601    14965.013 
   24900    37.375445    5257.3683    60963.524    339.10453    82.499942    421.60447    14963.702 
   24950    37.442474    5320.4337    63528.541     343.1723    83.858001     427.0303    14962.391 
   25000    37.510218     5239.126    61415.889    337.92789    83.027326    420.95521     14961.08 
   25050    37.573387    5133.8109    60030.683    331.13497     77.58324    408.71821    14959.769 
   25100    37.636348    4884.3094     59111.23    315.04192    80.784808    395.82673    14958.458 
   25150    37.698711    4789.2903    58288.205    308.91311    80.187582     389.1007    14957.147 
   25200    37.762286    4796.4236    58452.519    309.37322    79.026395    388.39961    14955.836 
   25250    37.826198    4712.6449     60741.22    303.96943    88.792505    392.76193    14954.525 
   25300    37.890185    5135.0998    58335.602    331.21811    73.298084    404.51619    14953.215 
   25350    37.955463    5276.7358    59289.535    340.35374    74.811453     415.1652    14951.904 
   25400    38.020117    5285.5998    59059.608    340.92548    75.709641    416.63512    14950.594 
   25450    38.085223    4960.4451    63592.248    319.95274     91.20587    411.15861    14949.283 
   25500    38.150376    4996.9023    60537.669    322.30426    84.994053    407.29831    14947.973 
   25550    38.216347     4917.341    62683.414    317.17249    87.886184    405.05868    14946.663 
   25600    38.282128    4985.6474    59773.445    321.57831    82.511529    404.08984    14945.352 
   25650    38.350584    4998.9117    59929.298    322.43386     81.09832    403.53218    14944.042 
   25700    38.416674    4992.6964    60214.084    322.03297    80.050747    402.08372    14942.732 
   25750    38.482914    4889.9438     60107.03    315.40535    83.504249     398.9096    14941.422 
   25800    38.549183      4971.91    58867.186    320.69223    75.604821    396.29705    14940.112 
   25850    38.615716    4963.4069    56637.256    320.14378    73.017985    393.16176    14938.803 
   25900    38.683199    4829.7621    58736.286    311.52358    77.196565    388.72015    14937.493 
   25950    38.750217    4812.6648     57460.93    310.42079    76.716689    387.13748    14936.183 
   26000    38.817827    4864.6781    58663.005    313.77569     78.33362    392.10931    14934.874 
   26050    38.880284    4968.0683    60030.005    320.44444    82.760741    403.20518    14933.564 
   26100    38.943333    5189.4509    60893.174     334.7238    79.725828    414.44963    14932.255 
   26150    39.007555    5131.0235    63089.027    330.95518    89.250507    420.20569    14930.945 
   26200    39.071166    5138.9829     62593.35    331.46857    89.221306    420.68988    14929.636 
   26250    39.135209    5184.8383    60650.923    334.42628    80.208082    414.63436    14928.327 
   26300    39.199473    5032.3059    56849.147    324.58782    73.521338    398.10916    14927.018 
   26350    39.265479    4867.5981    56607.689    313.96403    71.506176    385.47021    14925.709 
   26400    39.330404    4647.1172    58899.618    299.74283    84.416774    384.15961      14924.4 
   26450    39.395197    4952.9659    57242.182    319.47032      70.6858    390.15612    14923.091 
   26500    39.460543    4922.6149    59058.555    317.51266    79.529802    397.04246    14921.782 
   26550    39.526261    4935.9985    61722.491    318.37591    84.928613    403.30453    14920.473 
   26600    39.593126    4979.5235    62157.791    321.18331     88.85221    410.03552    14919.164 
   26650    39.660002    5272.9703    59866.798    340.11087    76.143508    416.25438    14917.856 
   26700     39.72561    5240.9314    59641.575    338.04433    78.910424    416.95476    14916.547 
   26750    39.792034    5072.2886     61516.43    327.16673    82.534947    409.70168    14915.239 
   26800    39.858035    4835.9905    59259.128    311.92532    81.262951    393.18827    14913.931 
   26850    39.925302    4685.2893    57647.899    302.20497    76.475117    378.68009    14912.622 
   26900    39.992301    4656.9352    56808.313     300.3761    76.871193    377.24729    14911.314 
   26950    40.061884    4778.2888    56747.635    308.20351    74.144745    382.34825    14910.006 
   27000    40.129083    4728.0964    59889.363    304.96606    84.976238     389.9423    14908.698 
   27050    40.191137    5006.7244    58721.178    322.93779    78.022073    400.95987     14907.39 
   27100    40.252825    5114.1179    60175.011    329.86476    80.379022    410.24378    14906.082 
   27150    40.315479    5055.5318    62744.674    326.08591    88.458244    414.54415    14904.774 
   27200     40.37854    5091.2597     62444.02    328.39038    87.474198    415.86458    14903.466 
   27250    40.444093    5174.4571    59317.994    333.75669    77.413953    411.17064    14902.159 
   27300    40.508245    5094.5219    57546.339     328.6008    71.571611    400.17241    14900.851 
   27350    40.572321    4714.6604     59756.02    304.09942     83.99543    388.09485    14899.544 
   27400    40.636297    4773.3837    57050.739    307.88713    75.254158    383.14129    14898.236 
   27450    40.701221    4705.0783     58945.05    303.48138    81.345751    384.82713    14896.929 
   27500    40.766432    4856.4989    60224.545    313.24812    85.328623    398.57675    14895.621 
   27550    40.831309    5259.6366    62136.934    339.25083    83.436039    422.68687    14894.314 
   27600     40.89686    5280.0495    64330.823    340.56748    87.598747    428.16623    14893.007 
   27650    40.963387    5166.9831    63653.432    333.27461    90.682062    423.95667      14891.7 
   27700    41.029763    5128.1207    61514.831    330.76795    83.190925    413.95887    14890.393 
   27750    41.098133    4962.1988    60860.426    320.06585    81.483732    401.54959    14889.086 
   27800    41.163962    4924.5396     57713.45     317.6368    75.591851    393.22865    14887.779 
   27850    41.229889    4956.2095    56946.977    319.67954    70.225853    389.90539    14886.473 
   27900     41.29733    4851.6791    58048.387    312.93725    78.599902    391.53715    14885.166 
   27950    41.363693    4978.2744    58689.394    321.10274    77.425103    398.52784    14883.859 
   28000     41.43028    4901.3147    64134.103    316.13878    93.622046    409.76083    14882.553 
   28050    41.492997    5315.5236    62281.075    342.85559    82.058487    424.91408    14881.246 
   28100    41.555848    5409.8628    63145.129    348.94054    81.737245    430.67779     14879.94 
   28150    41.621119    5317.7212    61541.573    342.99733    81.869996    424.86733    14878.634 
   28200    41.686162      5058.66     64211.42    326.28768    89.070012    415.35769    14877.327 
   28250    41.750329    5166.5361    59505.412    333.24577    77.269204    410.51498    14876.021 
   28300    41.814503    5036.2489    61684.199    324.84215    82.003178    406.84532    14874.715 
   28350    41.878587    4983.8672    60751.566    321.46349    83.041663    404.50515    14873.409 
   28400    41.943321    5046.2917    60466.572    325.48991    77.756746    403.24666    14872.103 
   28450    42.009414    4731.5006    63774.787    305.18563    96.889263    402.07489    14870.797 
   28500    42.079254    5092.5769    59698.735    328.47535    76.836045    405.31139    14869.492 
   28550    42.146241    5086.7879    61183.515    328.10195    82.646099    410.74805    14868.186 
   28600     42.21258    5153.2605    61472.652    332.38949    84.178824    416.56831     14866.88 
   28650     42.28178    5286.5245    62560.271    340.98513    80.315223    421.30035    14865.575 
   28700    42.348622    5182.6086    63348.094    334.28246    86.319154    420.60162    14864.269 
   28750    42.416142    5168.7785    61109.847    333.39041    78.675633    412.06604    14862.964 
   28800    42.483939    4819.5978     60319.64    310.86797    86.627546    397.49552    14861.659 
   28850    42.551019    4756.3808    59774.586    306.79042     81.94533    388.73575    14860.353 
   28900    42.619477    4712.1193    59521.973    303.93552    83.837997    387.77352    14859.048 
   28950    42.686687    4873.8918    59683.214    314.36998    79.428678    393.79866    14857.743 
   29000    42.754726    4955.2093    60730.498    319.61502    84.397434    404.01246    14856.438 
   29050    42.817711    5113.0268    61579.077    329.79438    83.217488    413.01187    14855.133 
   29100    42.880588    5164.4305    62620.914    333.10996    83.442588    416.55255    14853.828 
   29150    42.944302    5117.1407    61999.236    330.05973    84.253216    414.31295    14852.524 
   29200    43.009043    5098.4485    61835.196    328.85407    81.494631     410.3487    14851.219 
   29250    43.073573    4984.1013    61535.803    321.47858    86.205395    407.68398    14849.914 
   29300    43.138809    4896.8354    64052.469    315.84986    91.084334     406.9342     14848.61 
   29350    43.205075    5174.6159    59576.035    333.76693    75.230877    408.99781    14847.305 
   29400    43.269739    4937.0983    62527.196    318.44685    89.213024    407.65987    14846.001 
   29450    43.334404    5059.0287    59644.011    326.31146    79.594145     405.9056    14844.697 
   29500    43.399779    4910.7372    61363.785    316.74654     83.57457    400.32111    14843.392 
   29550    43.465947    4790.3014    60426.573    308.97833    81.656131    390.63446    14842.088 
   29600    43.531592    4599.9027    59931.599    296.69746    86.510214    383.20767    14840.784 
   29650    43.596975    4658.6194    59698.588    300.48473    83.400833    383.88557     14839.48 
   29700     43.66451    5085.7205    57007.621    328.03311    68.711744    396.74485    14838.176 
   29750    43.731061    5174.1537    60410.163    333.73712    78.535149    412.27227    14836.872 
   29800    43.797849    5182.3881    62159.472    334.26824    83.970584    418.23883    14835.569 
   29850    43.864557    5283.2827    60451.431    340.77603    76.219146    416.99517    14834.265 
   29900    43.932278    5117.9341    61112.711    330.11091    80.068786    410.17969    14832.961 
   29950    44.000706    4986.5608    60265.764    321.63722    81.601527    403.23875    14831.658 
   30000    44.069623    4924.5932    60458.025    317.64026    82.203857    399.84412    14830.354 
   30050    44.132681    4844.0008    60943.902    312.44198    85.204651    397.64664    14829.051 
   30100    44.197579    4865.5152    60764.494    313.82968    85.236511    399.06619    14827.748 
   30150    44.265325    4951.9778    61918.162    319.40659    85.182231    404.58882    14826.444 
   30200    44.328982    5137.2251    61762.342    331.35519    82.907217    414.26241    14825.141 
   30250    44.393411    5267.0402     64179.61    339.72837    89.052321    428.78069    14823.838 
   30300    44.460502    5641.2182    67106.637    363.86316    89.787627    453.65078    14822.535 
   30350    44.531166    5652.6204    68098.617    364.59861     96.17702    460.77563    14821.232 
   30400    44.596999    5517.2378    65713.832    355.86632    89.530864    445.39718    14819.929 
   30450    44.665106    5248.1894    64623.823    338.51248    90.822984    429.33546    14818.627 
   30500    44.731826    5108.5769    63151.358    329.50736    88.526798    418.03416    14817.324 
   30550    44.797371     5029.381    61679.546    324.39916    82.671061    407.07022    14816.021 
   30600    44.863068    4798.3467    61972.175    309.49726    89.097113    398.59437    14814.719 
   30650    44.931394    4861.1116    60744.696    313.54565    82.918509    396.46416    14813.416 
   30700    44.998583    4960.9142    60407.172    319.98299    80.612395    400.59539    14812.114 
   30750    45.064686    4997.9186    61817.103    322.36981    86.472325    408.84214    14810.811 
   30800    45.135648    5108.0736    64310.519     329.4749    89.638627    419.11352    14809.509 
   30850    45.202441    5195.7887    63649.067    335.13259    90.015157    425.14775    14808.207 
   30900    45.268375     5217.091    63387.457    336.50661    86.377917    422.88452    14806.905 
   30950    45.337266    5031.2269    61754.895    324.51822    85.246553    409.76478    14805.603 
   31000    45.403903    4880.1169    58079.448     314.7715    76.360489    391.13199    14804.301 
   31050    45.465748    4714.1482     58397.56    304.06639    79.903161    383.96955    14802.999 
   31100    45.527678    4807.3733    57671.504    310.07948    75.529067    385.60855    14801.697 
   31150    45.590295    4762.7139    61079.502    307.19892    85.226329    392.42525    14800.396 
   31200    45.652718     4999.878     59846.96    322.49619     80.23244    402.72863    14799.094 
   31250      45.7172    5018.1619    63367.352    323.67552    86.491312    410.16683    14797.792 
   31300    45.786057    5111.3499    61948.443    329.68622     84.27717    413.96339    14796.491 
   31350    45.850976    5182.8984     59122.15    334.30115    76.975252    411.27641    14795.189 
   31400     45.91939    5053.2432    59842.723    325.93829     77.49749    403.43578    14793.888 
   31450    45.990183     4780.666    60373.357    308.35684    84.294841    392.65168    14792.587 
   31500    46.056538    4666.0715    60407.323     300.9654     82.12905    383.09445    14791.286 
   31550    46.124063    4700.9384     56047.28    303.21435    74.169499    377.38384    14789.985 
   31600    46.192978    4688.7408     58512.87    302.42759    76.278852    378.70644    14788.684 
   31650    46.261381    4816.5563    60003.923    310.67179    84.171933    394.84373    14787.383 
   31700    46.328269    5206.3155    59514.965    335.81158    75.714317     411.5259    14786.082 
   31750    46.395283    5194.7112    61823.409    335.06309    82.380154    417.44324    14784.781 
   31800    46.462172    5199.6259    61056.287     335.3801    80.518625    415.89872     14783.48 
   31850    46.528781    5101.9799    60629.748    329.08185    79.707729    408.78958     14782.18 
   31900    46.595207    5008.6556    58872.112    323.06236      76.0841    399.14646    14780.879 
   31950     46.66273    4817.4381    60030.276    310.72867    80.837437    391.56611    14779.578 
   32000    46.731615    4759.3393    59667.887    306.98125    82.422045     389.4033    14778.278 
   32050    46.793767    4887.9179    59743.357    315.27468    78.541545    393.81622    14776.978 
   32100    46.857064    5120.0042    59192.377    330.24443    76.545051    406.78948    14775.677 
   32150    46.919354    5274.0346    61865.667    340.17951      82.3373    422.51681    14774.377 
   32200    46.984185    5410.6415    62336.917    348.99077    79.080385    428.07116    14773.077 
   32250    47.048229    5211.2138    62599.859    336.12752    85.661929    421.78945    14771.777 
   32300    47.113687    5023.1761    64096.127    323.99894    87.622019    411.62096    14770.477 
   32350    47.181355    5001.1972    61930.114    322.58128    83.616296    406.19758    14769.177 
   32400    47.247773    5050.8119    59868.183    325.78147    78.291467    404.07294    14767.877 
   32450    47.314081    4908.6447    62078.447    316.61157    85.171133    401.78271    14766.578 
   32500    47.379735    4851.7868    62246.247    312.94419    87.926586    400.87077    14765.278 
   32550    47.446331    4996.0306    61826.739    322.24803    80.922952    403.17099    14763.979 
   32600    47.512645     5086.369    60359.836    328.07494    80.454045    408.52898    14762.679 
   32650    47.579198    5167.6517    61399.798    333.31773    81.310408    414.62814     14761.38 
   32700     47.64598    5214.0178    63109.353    336.30838    83.885795    420.19418     14760.08 
   32750    47.715309    5136.4825     64188.33    331.30729    89.828069    421.13536    14758.781 
   32800    47.782065    5260.6801    61337.498    339.31814    75.852286    415.17042    14757.482 
   32850    47.848984    4920.8289    60826.079    317.39746    82.193955    399.59142    14756.183 
   32900    47.916834    4795.0185     59350.39    309.28259    79.412753    388.69534    14754.884 
   32950    47.984767    4672.2062    61562.753     301.3611    86.734631    388.09573    14753.585 
   33000    48.051268    4883.8287    60152.785    315.01092    81.122905    396.13382    14752.286 
   33050    48.112404    5121.1351    59928.491    330.31738    76.081202    406.39858    14750.987 
   33100    48.175758    5223.1927    60676.079    336.90017    75.866316    412.76649    14749.688 
   33150    48.238562    5096.9806      62826.8    328.75939    85.040076    413.79947     14748.39 
   33200     48.30298    5027.6293    63426.603    324.28618    87.319331    411.60551    14747.091 
   33250    48.368572    5005.5857    62432.853    322.86435    85.618924    408.48327    14745.792 
   33300    48.432906    4952.2517    62678.479    319.42426    86.496172    405.92043    14744.494 
   33350    48.497166    5019.1821    61455.293    323.74132    80.883987    404.62531    14743.196 
   33400    48.561956    5028.4632    61007.784    324.33996    80.124195    404.46416    14741.897 
   33450    48.626676    4990.1045    61404.424    321.86579     82.69264    404.55844    14740.599 
   33500    48.692215    4981.7761    61725.359     321.3286    83.967809    405.29641    14739.301 
   33550     48.75941    5039.6604    60467.805    325.06219    80.571534    405.63372    14738.003 
   33600    48.823844    5058.8398    59859.006    326.29928    78.727012    405.02629    14736.705 
   33650    48.889196    4928.1701    62249.354    317.87097    85.025738    402.89671    14735.407 
   33700    48.955141    4903.9991      61164.3    316.31193    83.013707    399.32563    14734.109 
   33750    49.021483    4881.9966    60478.739    314.89275    80.687234    395.57998    14732.811 
   33800    49.087463    4909.9282    59019.072    316.69436    75.688007    392.38236    14731.514 
   33850    49.152416    4741.5478    61541.765    305.83369    86.312477    392.14616    14730.216 
   33900    49.221073    5080.9447    58186.199    327.72506    72.177813    399.90287    14728.919 
   33950    49.286978    5052.9087     63214.25    325.91672    84.603284       410.52    14727.621 
   34000    49.352902    5162.5226    63506.225     332.9869    86.965075    419.95198    14726.324 
   34050    49.413894    5246.3079    63655.013    338.39112     85.39124    423.78236    14725.027 
   34100    49.476247    5256.4706    62354.209    339.04663    80.997024    420.04365    14723.729 
   34150    49.538385    4880.1748    63875.766    314.77524    92.856062     407.6313    14722.432 
   34200    49.601867    4781.2407    61384.476    308.39391    84.970112    393.36402    14721.135 
   34250    49.665831    4634.0597    61599.009    298.90062    87.168988     386.0696    14719.838 
   34300    49.728958    4803.8484     58456.94    309.85213    77.838121    387.69025    14718.541 
   34350     49.79385     4829.126    61161.244    311.48255    82.196705    393.67925    14717.244 
   34400    49.858905    4920.0238     60216.45    317.34553    82.546758    399.89229    14715.948 
   34450    49.925181    5000.9438    62208.897    322.56494    81.429035    403.99397    14714.651 
   34500    49.991873    5151.6853    59530.405    332.28789    74.725256    407.01314    14713.354 
   34550    50.057195    4985.3872    62304.766    321.56152    85.677739    407.23926    14712.058 
   34600    50.123391    4980.3565    63395.492    321.23704    86.495719    407.73276    14710.761 
   34650    50.189733    5030.2053    62211.777    324.45233    82.876355    407.32868    14709.465 
   34700    50.256751    4905.4559    62651.867    316.40589      89.2043    405.61019    14708.169 
   34750    50.324361    4988.0927    62315.155    321.73603    82.757775    404.49381    14706.872 
   34800    50.391144    4855.1069    63631.641    313.15834    90.395616    403.55395    14705.576 
   34850    50.457487    4914.5372    62970.656    316.99164    88.375077    405.36672     14704.28 
   34900    50.524284    5010.1138    63946.527    323.15641    88.031314    411.18773    14702.984 
   34950    50.592528    5100.3162    64124.973    328.97454    89.549113    418.52365    14701.688 
   35000    50.660698     5222.945    63915.152    336.88419    87.030658    423.91485    14700.393 
   35050    50.723648    5405.4552    61489.758    348.65625    75.060949     423.7172    14699.097 
   35100    50.785749    5141.1126    61423.916    331.60594    79.566797    411.17274    14697.801 
   35150    50.848658    4942.7056    58905.331    318.80853    75.919055    394.72758    14696.505 
   35200    50.913047     4664.122    62947.618    300.83966    86.748991    387.58865     14695.21 
   35250    50.977859    4835.6024    59239.265    311.90028    78.269112     390.1694    14693.914 
   35300    51.041521    4944.7541    60204.868    318.94065    79.164139    398.10479    14692.619 
   35350    51.106109    5100.7535    61023.301    329.00274    78.502678    407.50542    14691.324 
   35400    51.170897    5234.8264    60814.607    337.65055     75.00323    412.65378    14690.028 
   35450    51.236259    4956.3539    64658.672    319.68885    94.035063    413.72391    14688.733 
   35500    51.301768    5177.2937    62010.574    333.93965     79.90825     413.8479    14687.438 
   35550    51.367278    5119.2737    61542.947    330.19731    79.461279    409.65859    14686.143 
   35600    51.433572    5025.6808    59546.711     324.1605    76.190827    400.35132    14684.848 
   35650    51.499174    4752.7515    59165.377    306.55633    78.567259    385.12359    14683.553 
   35700    51.564709    4585.6518    57739.123    295.77827    76.795849    372.57412    14682.259 
   35750    51.631431    4541.5705    58616.072    292.93499    77.807874    370.74286    14680.964 
   35800    51.697418    4764.0954    60421.118    307.28802    82.861572    390.14959    14679.669 
   35850    51.764166    5138.6301     60849.86    331.44582    80.119061    411.56488    14678.375 
   35900    51.830499     5123.298    63995.768    330.45688    85.359522     415.8164     14677.08 
   35950    51.897591    5068.2933     63373.61    326.90904    87.899051    414.80809    14675.786 
   36000    51.965577    5056.0442    61309.035    326.11896    83.315354    409.43431    14674.492 
   36050    52.028499    4880.9335    63478.568    314.82417    87.520436    402.34461    14673.197 
   36100    52.089864    4783.7173    62313.826    308.55365    89.210273    397.76393    14671.903 
   36150    52.153877    4947.9277    60064.837    319.14535    78.994808    398.14016    14670.609 
   36200     52.21866    4994.4627    61208.998     322.1469    80.362723    402.50962    14669.315 
   36250    52.282024    5096.6878    61806.296    328.74051    82.537802    411.27831    14668.021 
   36300    52.346136    5222.9555    62237.547    336.88487    82.146538    419.03141    14666.727 
   36350    52.411806    5086.5845     67281.46    328.08883    95.562366     423.6512    14665.433 
   36400    52.477373    5163.3506    64628.043    333.04031    90.379558    423.41987     14664.14 
   36450     52.54224    5127.0954    61785.013    330.70182    81.916901    412.61872    14662.846 
   36500    52.608379    4847.5807    61565.039     312.6729    81.427179    394.10007    14661.553 
   36550    52.673944    4776.8948    58517.966    308.11359    77.910089    386.02368    14660.259 
   36600    52.741126    4700.3688    60677.651    303.17761    83.697739    386.87534    14658.966 
   36650    52.806848    4929.9158    60653.874    317.98357    77.783982    395.76756    14657.672 
   36700    52.872899    4996.4856    61739.315    322.27738     85.00173    407.27911    14656.379 
   36750    52.938802    5173.9957     62298.67    333.72693    81.411921    415.13885    14655.086 
   36800    53.006548     5152.648    62765.428    332.34998    84.026711    416.37669    14653.793 
   36850    53.072095    5117.3504    62232.736    330.07326    83.307849    413.38111      14652.5 
   36900    53.139032    4953.5924    62888.327    319.51073    87.413408    406.92414    14651.207 
   36950    53.205458    4786.6466    63928.145    308.74259    92.433524    401.17612    14649.914 
   37000    53.272055     4959.673    60594.249    319.90293    80.466197    400.36913    14648.621 
   37050    53.335141    5020.8089    61009.103    323.84625    78.638123    402.48438    14647.328 
   37100    53.400082    4885.0151    64598.973    315.08744    92.872639    407.96008    14646.036 
   37150    53.462023    5218.1329    65387.229    336.57381    90.519798    427.09361    14644.743 
   37200    53.525893    5613.2867    63598.891    362.06155    81.110066    443.17162    14643.451 
   37250     53.59025    5431.7594    66201.021     350.3529    88.611525    438.96442    14642.158 
   37300    53.655151    5380.2252    61676.696    347.02889    76.565552    423.59445    14640.866 
   37350    53.721591    5053.5908    61941.225    325.96071    83.510459    409.47117    14639.574 
[...]
  728250    307.05865    3.0009791    234.70282 
  728300    300.21752    3.0009791    234.84387 
  728350    309.42854    3.0009791     234.9857 
  728400     314.9338    3.0009791    235.13087 
  728450    304.26557    3.0009791    235.27094 
  728500      307.991    3.0009791    235.41133 
  728550    284.57183    3.0009791    235.55566 
  728600     277.4146    3.0009791    235.69612 
  728650    294.63676    3.0009791    235.83723 
  728700    304.63188    3.0009791    235.97861 
  728750    307.06098    3.0009791    236.11935 
  728800    281.70128    3.0009791    236.26307 
  728850    298.39397    3.0009791     236.4037 
  728900    300.81195    3.0009791    236.54583 
  728950    292.91867    3.0009791    236.68697 
  729000     301.6598    3.0009791     236.8279 
  729050    301.30291    3.0009791    236.96851 
  729100    300.45842    3.0009791    237.11469 
  729150    294.96506    3.0009791    237.25497 
  729200    292.87029    3.0009791    237.39511 
  729250    303.87563    3.0009791    237.53612 
  729300    287.71794    3.0009791    237.68037 
  729350    303.70339    3.0009791    237.82137 
  729400     292.6021    3.0009791    237.96261 
  729450    286.35983    3.0009791     238.1072 
  729500    304.73794    3.0009791    238.24776 
  729550    297.15333    3.0009791    238.38933 
  729600    315.91952    3.0009791    238.52966 
  729650    309.46151    3.0009791    238.66874 
  729700    300.15402    3.0009791    238.80706 
  729750    322.87195    3.0009791    238.94607 
  729800    310.57674    3.0009791    239.08899 
  729850    297.95375    3.0009791    239.22762 
  729900    294.60987    3.0009791    239.36655 
  729950    289.98262    3.0009791    239.50648 
  730000    279.76975    3.0009791     239.6501 
  730050     296.6338    3.0009791    239.79103 
  730100    297.24598    3.0009791     239.9321 
  730150    304.70718    3.0009791    240.07416 
  730200    306.51225    3.0009791    240.21805 
  730250    309.69251    3.0009791    240.35846 
  730300    301.03132    3.0009791    240.50226 
  730350    293.37272    3.0009791    240.64311 
  730400    295.55072    3.0009791    240.78216 
  730450    296.41465    3.0009791     240.9197 
  730500    296.19276    3.0009791    241.06339 
  730550    284.25979    3.0009791    241.20159 
  730600    274.65767    3.0009791    241.34089 
  730650    274.56367    3.0009791    241.48376 
  730700    284.96988    3.0009791    241.62302 
  730750    292.78281    3.0009791    241.76187 
  730800    285.72724    3.0009791    241.90163 
  730850    306.05645    3.0009791    242.04594 
  730900    289.09458    3.0009791    242.18661 
  730950     304.3087    3.0009791    242.32726 
  731000     311.9912    3.0009791    242.47319 
  731050    296.04226    3.0009791    242.61442 
  731100    295.98676    3.0009791    242.75491 
  731150    277.40738    3.0009791    242.89828 
  731200     280.6695    3.0009791     243.0394 
  731250    299.27453    3.0009791    243.18309 
  731300    300.90925    3.0009791     243.3236 
  731350    293.31362    3.0009791    243.46512 
  731400    296.99526    3.0009791    243.60426 
  731450    312.63067    3.0009791    243.74802 
  731500    299.31167    3.0009791    243.88803 
  731550    302.67654    3.0009791    244.02994 
  731600    301.34761    3.0009791    244.17178 
  731650    311.65957    3.0009791    244.31265 
  731700    307.20284    3.0009791    244.45153 
  731750    307.19209    3.0009791    244.59228 
  731800    289.16327    3.0009791    244.73158 
  731850    305.72445    3.0009791     244.8702 
  731900    304.12041    3.0009791     245.0104 
  731950    302.70793    3.0009791    245.15134 
  732000    321.20189    3.0009791    245.29434 
  732050    307.43095    3.0009791    245.43483 
  732100    317.41573    3.0009791      245.577 
  732150    311.92273    3.0009791     245.7179 
  732200     302.8208    3.0009791    245.87233 
  732250     295.9994    3.0009791     246.0126 
  732300    300.54408    3.0009791    246.15174 
  732350    288.87073    3.0009791    246.29121 
  732400    289.86707    3.0009791    246.42952 
  732450    302.89701    3.0009791    246.57282 
  732500    291.65632    3.0009791    246.71263 
  732550    300.40462    3.0009791    246.85133 
  732600    305.18218    3.0009791    246.99085 
  732650    312.98946    3.0009791    247.13306 
  732700    303.98097    3.0009791    247.27191 
  732750    309.15137    3.0009791    247.41241 
  732800     303.3818    3.0009791    247.55254 
  732850    289.21827    3.0009791    247.69419 
  732900    288.63502    3.0009791    247.83382 
  732950    291.02156    3.0009791    247.97758 
  733000     282.8931    3.0009791    248.11753 
  733050    294.83677    3.0009791    248.25695 
  733100    299.19109    3.0009791    248.39681 
  733150    306.37512    3.0009791    248.54011 
  733200    292.48413    3.0009791    248.67839 
  733250    317.14829    3.0009791    248.81673 
  733300    310.53093    3.0009791    248.95583 
  733350    315.99542    3.0009791    249.09619 
  733400    288.20622    3.0009791    249.23749 
  733450    286.39189    3.0009791    249.37897 
  733500    270.43215    3.0009791    249.52106 
  733550    295.88411    3.0009791    249.66598 
  733600    303.24473    3.0009791    249.80685 
  733650     276.0472    3.0009791    249.94807 
  733700    305.32211    3.0009791    250.09091 
  733750    291.07246    3.0009791     250.2315 
  733800       302.71    3.0009791    250.37542 
  733850    315.84173    3.0009791    250.51804 
  733900    306.76474    3.0009791     250.6592 
  733950    302.37179    3.0009791    250.79972 
  734000    300.43631    3.0009791    250.94352 
  734050    301.23049    3.0009791    251.08561 
  734100    295.29758    3.0009791    251.22626 
  734150    280.64331    3.0009791    251.37057 
  734200    277.87735    3.0009791    251.51144 
  734250    286.57165    3.0009791    251.65572 
  734300     282.8615    3.0009791     251.7967 
  734350    291.97017    3.0009791    251.93818 
  734400    291.77466    3.0009791    252.08023 
  734450    308.41383    3.0009791    252.22011 
  734500    300.96529    3.0009791    252.35811 
  734550    329.33626    3.0009791    252.50081 
  734600    294.99605    3.0009791    252.63912 
  734650    305.48901    3.0009791    252.77838 
  734700    299.59637    3.0009791    252.91613 
  734750    304.50552    3.0009791    253.05625 
  734800    303.21066    3.0009791    253.19606 
  734850    280.33107    3.0009791    253.33431 
  734900    301.84242    3.0009791    253.47728 
  734950    285.82675    3.0009791     253.6149 
  735000    309.96126    3.0009791     253.7548 
  735050    302.54777    3.0009791     253.8948 
  735100    314.71319    3.0009791    254.03596 
  735150    305.74565    3.0009791    254.17986 
  735200    299.51091    3.0009791    254.32088 
  735250    301.61324    3.0009791    254.46201 
  735300    281.02682    3.0009791    254.60227 
  735350    292.93398    3.0009791    254.74114 
  735400    291.48888    3.0009791    254.88037 
  735450    290.01124    3.0009791    255.02414 
  735500    306.17762    3.0009791    255.16253 
  735550    283.87889    3.0009791    255.30134 
  735600    299.76055    3.0009791    255.44009 
  735650    288.65057    3.0009791    255.58224 
  735700    306.01181    3.0009791    255.72077 
  735750    312.91853    3.0009791    255.85873 
  735800    313.13489    3.0009791    256.00168 
  735850    309.90979    3.0009791    256.14163 
  735900    293.23004    3.0009791    256.28006 
  735950    298.96832    3.0009791    256.41842 
  736000    295.54005    3.0009791    256.56156 
  736050     300.9347    3.0009791    256.70039 
  736100    309.03459    3.0009791    256.83876 
  736150    277.48977    3.0009791    256.97914 
  736200    290.77744    3.0009791    257.11887 
  736250     286.1562    3.0009791    257.25758 
  736300    289.95187    3.0009791    257.39536 
  736350    289.39445    3.0009791    257.53789 
  736400    295.63994    3.0009791    257.67635 
  736450    301.09872    3.0009791    257.81407 
  736500    307.86314    3.0009791    257.95154 
  736550    293.23347    3.0009791    258.09103 
  736600     316.9402    3.0009791    258.22988 
  736650    303.22458    3.0009791    258.36768 
  736700    305.08591    3.0009791    258.50679 
  736750     292.4301    3.0009791    258.64816 
  736800    290.01476    3.0009791    258.78662 
  736850    284.54143    3.0009791     258.9248 
  736900    287.23668    3.0009791    259.06565 
  736950    298.99364    3.0009791    259.20968 
  737000    294.98453    3.0009791    259.34805 
  737050    297.73381    3.0009791    259.48781 
  737100     299.5083    3.0009791    259.62673 
  737150    318.03983    3.0009791    259.76854 
  737200    302.41091    3.0009791    259.90674 
  737250    305.05524    3.0009791    260.04943 
  737300    315.41652    3.0009791    260.19353 
  737350    298.37582    3.0009791    260.33453 
  737400    289.69067    3.0009791    260.47324 
  737450      298.782    3.0009791    260.61293 
  737500    299.63855    3.0009791    260.75486 
  737550    284.55638    3.0009791    260.89404 
  737600    290.30177    3.0009791    261.03353 
  737650    300.36829    3.0009791    261.17449 
  737700     294.0052    3.0009791    261.31329 
  737750    309.77506    3.0009791    261.45268 
  737800    299.18891    3.0009791    261.59212 
  737850    298.46403    3.0009791    261.73397 
  737900    316.89253    3.0009791    261.87239 
  737950    303.75351    3.0009791    262.01203 
  738000    290.85636    3.0009791    262.15149 
  738050    312.53845    3.0009791    262.28999 
  738100    294.65132    3.0009791    262.42874 
  738150    305.18233    3.0009791    262.57188 
  738200    302.93456    3.0009791     262.7098 
  738250    296.22819    3.0009791    262.84787 
  738300    285.65088    3.0009791    262.98836 
  738350    303.35063    3.0009791    263.12884 
  738400    292.61857    3.0009791    263.27311 
  738450    304.71687    3.0009791    263.41378 
  738500    313.08798    3.0009791    263.55905 
  738550    301.95789    3.0009791    263.69947 
  738600    301.01873    3.0009791    263.84012 
  738650    320.25683    3.0009791    263.98053 
  738700    301.21425    3.0009791    264.12176 
  738750    306.38382    3.0009791    264.26618 
  738800    300.86219    3.0009791    264.40731 
  738850    287.16326    3.0009791    264.55177 
  738900    294.04081    3.0009791    264.69307 
  738950    303.41073    3.0009791    264.83402 
  739000    306.67451    3.0009791    264.97471 
  739050    316.09227    3.0009791    265.11628 
  739100    317.59235    3.0009791    265.25977 
  739150    316.75365    3.0009791    265.39986 
  739200     321.9218    3.0009791    265.54043 
  739250    303.95681    3.0009791    265.68415 
  739300    293.67024    3.0009791    265.82497 
  739350    305.46399    3.0009791    265.96537 
  739400    305.09384    3.0009791    266.10685 
  739450    313.03717    3.0009791    266.24822 
  739500    292.55647    3.0009791    266.38864 
  739550    305.69955    3.0009791    266.53081 
  739600    297.19379    3.0009791     266.6743 
  739650    300.48416    3.0009791    266.81517 
  739700    289.01012    3.0009791    266.95576 
  739750    304.23875    3.0009791    267.09977 
  739800    316.78882    3.0009791    267.24001 
  739850    326.47836    3.0009791    267.38399 
  739900    284.82879    3.0009791    267.52534 
  739950    317.00122    3.0009791     267.6656 
  740000    315.10901    3.0009791    267.80754 
  740050    294.91882    3.0009791    267.95119 
  740100    288.71602    3.0009791    268.09358 
  740150    280.73167    3.0009791       268.24 
  740200    290.84809    3.0009791    268.38146 
  740250    286.54601    3.0009791    268.52558 
  740300    301.35706    3.0009791    268.67049 
  740350     285.6991    3.0009791    268.81214 
  740400     297.9864    3.0009791    268.95422 
  740450    297.45046    3.0009791    269.09622 
  740500    302.71071    3.0009791    269.24069 
  740550     292.1893    3.0009791    269.38266 
  740600    312.76895    3.0009791    269.52821 
  740650    296.01337    3.0009791     269.6776 
  740700    298.54357    3.0009791    269.81906 
  740750    282.87871    3.0009791    269.96122 
  740800    288.54532    3.0009791    270.10457 
  740850    283.29165    3.0009791    270.24651 
  740900    293.44265    3.0009791    270.39106 
  740950    290.92182    3.0009791    270.53544 
  741000    294.06254    3.0009791    270.67736 
  741050     305.8575    3.0009791    270.81878 
  741100     316.4908    3.0009791    270.96312 
  741150    296.97141    3.0009791    271.10418 
  741200    297.01599    3.0009791    271.24749 
  741250    299.76222    3.0009791    271.38767 
  741300    283.13216    3.0009791    271.53272 
  741350    308.24676    3.0009791    271.67398 
  741400    294.15927    3.0009791      271.816 
  741450    303.74555    3.0009791    271.95985 
  741500    297.99698    3.0009791    272.10391 
  741550    302.88359    3.0009791    272.24535 
  741600    291.60208    3.0009791    272.38643 
  741650    287.30375    3.0009791    272.52924 
  741700    299.20054    3.0009791    272.67002 
  741750    309.19889    3.0009791    272.81129 
  741800    307.66507    3.0009791    272.95216 
  741850    315.67217    3.0009791    273.09452 
  741900     315.6101    3.0009791    273.23618 
  741950     301.4054    3.0009791    273.37765 
  742000    304.03936    3.0009791    273.51917 
  742050    301.82057    3.0009791    273.66002 
  742100     294.0285    3.0009791    273.79924 
  742150    292.90924    3.0009791    273.93776 
  742200     295.9238    3.0009791    274.07874 
  742250    306.79088    3.0009791     274.2176 
  742300    304.34202    3.0009791    274.35439 
  742350    326.30875    3.0009791    274.49381 
  742400    298.54872    3.0009791    274.63047 
  742450    320.48096    3.0009791    274.77194 
  742500    294.16967    3.0009791    274.91343 
  742550    302.98558    3.0009791      275.056 
  742600    283.15766    3.0009791    275.19732 
  742650    282.43024    3.0009791    275.34138 
  742700     299.4123    3.0009791    275.48572 
  742750      301.906    3.0009791    275.62734 
  742800    312.60811    3.0009791    275.76877 
  742850    311.95834    3.0009791    275.90869 
  742900    295.24362    3.0009791    276.04741 
  742950    303.43297    3.0009791     276.1857 
  743000    295.93675    3.0009791    276.32709 
  743050    275.89037    3.0009791    276.46653 
  743100    295.32412    3.0009791    276.60595 
  743150    295.91534    3.0009791     276.7469 
  743200    273.36906    3.0009791    276.88377 
  743250    296.44837    3.0009791    277.02322 
  743300    280.47447    3.0009791    277.16149 
  743350    290.65639    3.0009791    277.30012 
  743400    290.45518    3.0009791    277.43782 
  743450    296.59619    3.0009791    277.57812 
  743500    300.01759    3.0009791    277.71664 
  743550    297.76482    3.0009791    277.85349 
  743600      301.766    3.0009791    277.99346 
  743650    296.39377    3.0009791    278.13056 
  743700    304.77194    3.0009791    278.27473 
  743750    303.51796    3.0009791    278.41364 
  743800    289.31901    3.0009791    278.55486 
  743850    287.70949    3.0009791    278.69497 
  743900    294.44072    3.0009791    278.83769 
  743950    283.63271    3.0009791    278.98009 
  744000    287.05996    3.0009791    279.12018 
  744050    292.23391    3.0009791    279.26011 
  744100    303.08619    3.0009791    279.40102 
  744150    325.79431    3.0009791    279.54198 
  744200    311.76192    3.0009791    279.68162 
  744250    294.84626    3.0009791    279.82276 
  744300    306.81687    3.0009791    279.96156 
  744350     297.3923    3.0009791    280.10166 
  744400    293.06145    3.0009791    280.24101 
  744450    300.93546    3.0009791    280.38183 
  744500    281.35809    3.0009791    280.52225 
  744550    301.92723    3.0009791    280.66119 
  744600    300.53302    3.0009791    280.79991 
  744650    306.24742    3.0009791    280.93806 
  744700    323.43332    3.0009791    281.08096 
  744750    315.99672    3.0009791    281.21896 
  744800    296.16905    3.0009791    281.35683 
  744850    285.91145    3.0009791    281.49625 
  744900    291.38905    3.0009791    281.63471 
  744950    289.67774    3.0009791    281.77344 
  745000    290.13119    3.0009791     281.9128 
  745050    297.40711    3.0009791    282.05226 
  745100    291.75898    3.0009791    282.19295 
  745150    296.38333    3.0009791    282.33404 
  745200    296.61918    3.0009791    282.47545 
  745250    311.93548    3.0009791    282.61682 
  745300    333.78071    3.0009791    282.75538 
  745350    309.19532    3.0009791    282.89345 
  745400    307.12977    3.0009791    283.03533 
  745450    298.07521    3.0009791    283.17384 
  745500    304.64684    3.0009791    283.31389 
  745550    313.59978    3.0009791     283.4519 
  745600    291.12056    3.0009791    283.59391 
  745650    292.89514    3.0009791    283.73319 
  745700    288.69593    3.0009791    283.87214 
  745750    290.90712    3.0009791    284.01366 
  745800    298.53253    3.0009791    284.15254 
  745850    294.24649    3.0009791    284.29528 
  745900    303.36075    3.0009791    284.43369 
  745950    305.44669    3.0009791    284.57386 
  746000    321.07864    3.0009791     284.7123 
  746050    312.83247    3.0009791     284.8553 
  746100    302.99048    3.0009791    284.99535 
  746150    306.19583    3.0009791    285.13349 
  746200    307.72945    3.0009791    285.27168 
  746250    296.05826    3.0009791    285.41255 
  746300    294.14088    3.0009791    285.55205 
  746350    296.54895    3.0009791     285.6902 
  746400    303.36932    3.0009791    285.82903 
  746450    304.89625    3.0009791    285.96733 
  746500     306.9498    3.0009791    286.10623 
  746550    309.74079    3.0009791    286.24587 
  746600    283.16708    3.0009791    286.38385 
  746650    272.02631    3.0009791    286.52301 
  746700    296.11031    3.0009791    286.66398 
  746750    297.33689    3.0009791    286.80396 
  746800    286.79083    3.0009791    286.94433 
  746850     302.5183    3.0009791    287.08569 
  746900    303.93784    3.0009791    287.22581 
  746950    318.49327    3.0009791    287.36615 
  747000    292.69948    3.0009791    287.51201 
  747046    297.84018    3.0009791    287.64144 
Loop time of 287.641 on 1 procs for 100000 steps with 500 atoms

Performance: 30.037 ns/day, 0.799 hours/ns, 347.655 timesteps/s
100.0% CPU use with 1 MPI tasks x no OpenMP threads

MPI task timing breakdown:
Section |  min time  |  avg time  |  max time  |%varavg| %total
---------------------------------------------------------------
Pair    | 269.8      | 269.8      | 269.8      |   0.0 | 93.80
Kspace  | 13.718     | 13.718     | 13.718     |   0.0 |  4.77
Neigh   | 1.1798     | 1.1798     | 1.1798     |   0.0 |  0.41
Comm    | 1.7843     | 1.7843     | 1.7843     |   0.0 |  0.62
Output  | 0.11528    | 0.11528    | 0.11528    |   0.0 |  0.04
Modify  | 0.62979    | 0.62979    | 0.62979    |   0.0 |  0.22
Other   |            | 0.4106     |            |       |  0.14

Nlocal:    500 ave 500 max 500 min
Histogram: 1 0 0 0 0 0 0 0 0 0
Nghost:    5896 ave 5896 max 5896 min
Histogram: 1 0 0 0 0 0 0 0 0 0
Neighs:    160471 ave 160471 max 160471 min
Histogram: 1 0 0 0 0 0 0 0 0 0

Total # of neighbors = 160471
Ave neighs/atom = 320.942
Neighbor list builds = 394
Dangerous builds = 0

#restart file
write_restart restart.a_al2o3_0_* #need MPIIO package
PPPM initialization ...
  using 12-bit tables for long-range coulomb (src/kspace.cpp:323)
  G vector (1/distance) = 0.208223
  grid = 5 5 5
  stencil order = 5
  estimated absolute RMS force accuracy = 0.00029113
  estimated relative force accuracy = 2.02179e-05
  using double precision FFTW3
  3d grid and FFT values/proc = 1000 125
Total wall time: 0:30:44
