#Al2O3
500 atoms
2 atom types

0 15.91 xlo xhi
0 15.91 ylo yhi
0 15.91 zlo zhi

Masses

1 28.0855
2 15.9994

Atoms

1 1 1.4175 0.5 0.5 0.5
2 1 1.4175 0.5 0.5 2.0
3 1 1.4175 0.5 0.5 3.5
4 1 1.4175 0.5 0.5 5.0
5 1 1.4175 0.5 0.5 6.5
6 1 1.4175 0.5 0.5 8.0
7 1 1.4175 0.5 0.5 9.5
8 1 1.4175 0.5 0.5 11.0
9 1 1.4175 0.5 0.5 12.5
10 1 1.4175 2.0 0.5 0.5
11 1 1.4175 2.0 0.5 2.0
12 1 1.4175 2.0 0.5 3.5
13 1 1.4175 2.0 0.5 5.0
14 1 1.4175 2.0 0.5 6.5
15 1 1.4175 2.0 0.5 8.0
16 1 1.4175 2.0 0.5 9.5
17 1 1.4175 2.0 0.5 11.0
18 1 1.4175 2.0 0.5 12.5
19 1 1.4175 3.5 0.5 0.5
20 1 1.4175 3.5 0.5 2.0
21 1 1.4175 3.5 0.5 3.5
22 1 1.4175 3.5 0.5 5.0
23 1 1.4175 3.5 0.5 6.5
24 1 1.4175 3.5 0.5 8.0
25 1 1.4175 3.5 0.5 9.5
26 1 1.4175 3.5 0.5 11.0
27 1 1.4175 3.5 0.5 12.5
28 1 1.4175 5.0 0.5 0.5
29 1 1.4175 5.0 0.5 2.0
30 1 1.4175 5.0 0.5 3.5
31 1 1.4175 5.0 0.5 5.0
32 1 1.4175 5.0 0.5 6.5
33 1 1.4175 5.0 0.5 8.0
34 1 1.4175 5.0 0.5 9.5
35 1 1.4175 5.0 0.5 11.0
36 1 1.4175 5.0 0.5 12.5
37 1 1.4175 6.5 0.5 0.5
38 1 1.4175 6.5 0.5 2.0
39 1 1.4175 6.5 0.5 3.5
40 1 1.4175 6.5 0.5 5.0
41 1 1.4175 6.5 0.5 6.5
42 1 1.4175 6.5 0.5 8.0
43 1 1.4175 6.5 0.5 9.5
44 1 1.4175 6.5 0.5 11.0
45 1 1.4175 6.5 0.5 12.5
46 1 1.4175 8.0 0.5 0.5
47 1 1.4175 8.0 0.5 2.0
48 1 1.4175 8.0 0.5 3.5
49 1 1.4175 8.0 0.5 5.0
50 1 1.4175 8.0 0.5 6.5
51 1 1.4175 8.0 0.5 8.0
52 1 1.4175 8.0 0.5 9.5
53 1 1.4175 8.0 0.5 11.0
54 1 1.4175 8.0 0.5 12.5
55 1 1.4175 9.5 0.5 0.5
56 1 1.4175 9.5 0.5 2.0
57 1 1.4175 9.5 0.5 3.5
58 1 1.4175 9.5 0.5 5.0
59 1 1.4175 9.5 0.5 6.5
60 1 1.4175 9.5 0.5 8.0
61 1 1.4175 9.5 0.5 9.5
62 1 1.4175 9.5 0.5 11.0
63 1 1.4175 9.5 0.5 12.5
64 1 1.4175 11.0 0.5 0.5
65 1 1.4175 11.0 0.5 2.0
66 1 1.4175 11.0 0.5 3.5
67 1 1.4175 11.0 0.5 5.0
68 1 1.4175 11.0 0.5 6.5
69 1 1.4175 11.0 0.5 8.0
70 1 1.4175 11.0 0.5 9.5
71 1 1.4175 11.0 0.5 11.0
72 1 1.4175 11.0 0.5 12.5
73 1 1.4175 12.5 0.5 0.5
74 1 1.4175 12.5 0.5 2.0
75 1 1.4175 12.5 0.5 3.5
76 1 1.4175 12.5 0.5 5.0
77 1 1.4175 12.5 0.5 6.5
78 1 1.4175 12.5 0.5 8.0
79 1 1.4175 12.5 0.5 9.5
80 1 1.4175 12.5 0.5 11.0
81 1 1.4175 12.5 0.5 12.5
82 1 1.4175 0.5 2.0 0.5
83 1 1.4175 0.5 2.0 2.0
84 1 1.4175 0.5 2.0 3.5
85 1 1.4175 0.5 2.0 5.0
86 1 1.4175 0.5 2.0 6.5
87 1 1.4175 0.5 2.0 8.0
88 1 1.4175 0.5 2.0 9.5
89 1 1.4175 0.5 2.0 11.0
90 1 1.4175 0.5 2.0 12.5
91 1 1.4175 2.0 2.0 0.5
92 1 1.4175 2.0 2.0 2.0
93 1 1.4175 2.0 2.0 3.5
94 1 1.4175 2.0 2.0 5.0
95 1 1.4175 2.0 2.0 6.5
96 1 1.4175 2.0 2.0 8.0
97 1 1.4175 2.0 2.0 9.5
98 1 1.4175 2.0 2.0 11.0
99 1 1.4175 2.0 2.0 12.5
100 1 1.4175 3.5 2.0 0.5
101 1 1.4175 3.5 2.0 2.0
102 1 1.4175 3.5 2.0 3.5
103 1 1.4175 3.5 2.0 5.0
104 1 1.4175 3.5 2.0 6.5
105 1 1.4175 3.5 2.0 8.0
106 1 1.4175 3.5 2.0 9.5
107 1 1.4175 3.5 2.0 11.0
108 1 1.4175 3.5 2.0 12.5
109 1 1.4175 5.0 2.0 0.5
110 1 1.4175 5.0 2.0 2.0
111 1 1.4175 5.0 2.0 3.5
112 1 1.4175 5.0 2.0 5.0
113 1 1.4175 5.0 2.0 6.5
114 1 1.4175 5.0 2.0 8.0
115 1 1.4175 5.0 2.0 9.5
116 1 1.4175 5.0 2.0 11.0
117 1 1.4175 5.0 2.0 12.5
118 1 1.4175 6.5 2.0 0.5
119 1 1.4175 6.5 2.0 2.0
120 1 1.4175 6.5 2.0 3.5
121 1 1.4175 6.5 2.0 5.0
122 1 1.4175 6.5 2.0 6.5
123 1 1.4175 6.5 2.0 8.0
124 1 1.4175 6.5 2.0 9.5
125 1 1.4175 6.5 2.0 11.0
126 1 1.4175 6.5 2.0 12.5
127 1 1.4175 8.0 2.0 0.5
128 1 1.4175 8.0 2.0 2.0
129 1 1.4175 8.0 2.0 3.5
130 1 1.4175 8.0 2.0 5.0
131 1 1.4175 8.0 2.0 6.5
132 1 1.4175 8.0 2.0 8.0
133 1 1.4175 8.0 2.0 9.5
134 1 1.4175 8.0 2.0 11.0
135 1 1.4175 8.0 2.0 12.5
136 1 1.4175 9.5 2.0 0.5
137 1 1.4175 9.5 2.0 2.0
138 1 1.4175 9.5 2.0 3.5
139 1 1.4175 9.5 2.0 5.0
140 1 1.4175 9.5 2.0 6.5
141 1 1.4175 9.5 2.0 8.0
142 1 1.4175 9.5 2.0 9.5
143 1 1.4175 9.5 2.0 11.0
144 1 1.4175 9.5 2.0 12.5
145 1 1.4175 11.0 2.0 0.5
146 1 1.4175 11.0 2.0 2.0
147 1 1.4175 11.0 2.0 3.5
148 1 1.4175 11.0 2.0 5.0
149 1 1.4175 11.0 2.0 6.5
150 1 1.4175 11.0 2.0 8.0
151 1 1.4175 11.0 2.0 9.5
152 1 1.4175 11.0 2.0 11.0
153 1 1.4175 11.0 2.0 12.5
154 1 1.4175 12.5 2.0 0.5
155 1 1.4175 12.5 2.0 2.0
156 1 1.4175 12.5 2.0 3.5
157 1 1.4175 12.5 2.0 5.0
158 1 1.4175 12.5 2.0 6.5
159 1 1.4175 12.5 2.0 8.0
160 1 1.4175 12.5 2.0 9.5
161 1 1.4175 12.5 2.0 11.0
162 1 1.4175 12.5 2.0 12.5
163 1 1.4175 0.5 3.5 0.5
164 1 1.4175 0.5 3.5 2.0
165 1 1.4175 0.5 3.5 3.5
166 1 1.4175 0.5 3.5 5.0
167 1 1.4175 0.5 3.5 6.5
168 1 1.4175 0.5 3.5 8.0
169 1 1.4175 0.5 3.5 9.5
170 1 1.4175 0.5 3.5 11.0
171 1 1.4175 0.5 3.5 12.5
172 1 1.4175 2.0 3.5 0.5
173 1 1.4175 2.0 3.5 2.0
174 1 1.4175 2.0 3.5 3.5
175 1 1.4175 2.0 3.5 5.0
176 1 1.4175 2.0 3.5 6.5
177 1 1.4175 2.0 3.5 8.0
178 1 1.4175 2.0 3.5 9.5
179 1 1.4175 2.0 3.5 11.0
180 1 1.4175 2.0 3.5 12.5
181 1 1.4175 3.5 3.5 0.5
182 1 1.4175 3.5 3.5 2.0
183 1 1.4175 3.5 3.5 3.5
184 1 1.4175 3.5 3.5 5.0
185 1 1.4175 3.5 3.5 6.5
186 1 1.4175 3.5 3.5 8.0
187 1 1.4175 3.5 3.5 9.5
188 1 1.4175 3.5 3.5 11.0
189 1 1.4175 3.5 3.5 12.5
190 1 1.4175 5.0 3.5 0.5
191 1 1.4175 5.0 3.5 2.0
192 1 1.4175 5.0 3.5 3.5
193 1 1.4175 5.0 3.5 5.0
194 1 1.4175 5.0 3.5 6.5
195 1 1.4175 5.0 3.5 8.0
196 1 1.4175 5.0 3.5 9.5
197 1 1.4175 5.0 3.5 11.0
198 1 1.4175 5.0 3.5 12.5
199 1 1.4175 6.5 3.5 0.5
200 1 1.4175 6.5 3.5 2.0
201 2 -0.945 6.5 3.5 3.5
202 2 -0.945 6.5 3.5 5.0
203 2 -0.945 6.5 3.5 6.5
204 2 -0.945 6.5 3.5 8.0
205 2 -0.945 6.5 3.5 9.5
206 2 -0.945 6.5 3.5 11.0
207 2 -0.945 6.5 3.5 12.5
208 2 -0.945 8.0 3.5 0.5
209 2 -0.945 8.0 3.5 2.0
210 2 -0.945 8.0 3.5 3.5
211 2 -0.945 8.0 3.5 5.0
212 2 -0.945 8.0 3.5 6.5
213 2 -0.945 8.0 3.5 8.0
214 2 -0.945 8.0 3.5 9.5
215 2 -0.945 8.0 3.5 11.0
216 2 -0.945 8.0 3.5 12.5
217 2 -0.945 9.5 3.5 0.5
218 2 -0.945 9.5 3.5 2.0
219 2 -0.945 9.5 3.5 3.5
220 2 -0.945 9.5 3.5 5.0
221 2 -0.945 9.5 3.5 6.5
222 2 -0.945 9.5 3.5 8.0
223 2 -0.945 9.5 3.5 9.5
224 2 -0.945 9.5 3.5 11.0
225 2 -0.945 9.5 3.5 12.5
226 2 -0.945 11.0 3.5 0.5
227 2 -0.945 11.0 3.5 2.0
228 2 -0.945 11.0 3.5 3.5
229 2 -0.945 11.0 3.5 5.0
230 2 -0.945 11.0 3.5 6.5
231 2 -0.945 11.0 3.5 8.0
232 2 -0.945 11.0 3.5 9.5
233 2 -0.945 11.0 3.5 11.0
234 2 -0.945 11.0 3.5 12.5
235 2 -0.945 12.5 3.5 0.5
236 2 -0.945 12.5 3.5 2.0
237 2 -0.945 12.5 3.5 3.5
238 2 -0.945 12.5 3.5 5.0
239 2 -0.945 12.5 3.5 6.5
240 2 -0.945 12.5 3.5 8.0
241 2 -0.945 12.5 3.5 9.5
242 2 -0.945 12.5 3.5 11.0
243 2 -0.945 12.5 3.5 12.5
244 2 -0.945 0.5 5.0 0.5
245 2 -0.945 0.5 5.0 2.0
246 2 -0.945 0.5 5.0 3.5
247 2 -0.945 0.5 5.0 5.0
248 2 -0.945 0.5 5.0 6.5
249 2 -0.945 0.5 5.0 8.0
250 2 -0.945 0.5 5.0 9.5
251 2 -0.945 0.5 5.0 11.0
252 2 -0.945 0.5 5.0 12.5
253 2 -0.945 2.0 5.0 0.5
254 2 -0.945 2.0 5.0 2.0
255 2 -0.945 2.0 5.0 3.5
256 2 -0.945 2.0 5.0 5.0
257 2 -0.945 2.0 5.0 6.5
258 2 -0.945 2.0 5.0 8.0
259 2 -0.945 2.0 5.0 9.5
260 2 -0.945 2.0 5.0 11.0
261 2 -0.945 2.0 5.0 12.5
262 2 -0.945 3.5 5.0 0.5
263 2 -0.945 3.5 5.0 2.0
264 2 -0.945 3.5 5.0 3.5
265 2 -0.945 3.5 5.0 5.0
266 2 -0.945 3.5 5.0 6.5
267 2 -0.945 3.5 5.0 8.0
268 2 -0.945 3.5 5.0 9.5
269 2 -0.945 3.5 5.0 11.0
270 2 -0.945 3.5 5.0 12.5
271 2 -0.945 5.0 5.0 0.5
272 2 -0.945 5.0 5.0 2.0
273 2 -0.945 5.0 5.0 3.5
274 2 -0.945 5.0 5.0 5.0
275 2 -0.945 5.0 5.0 6.5
276 2 -0.945 5.0 5.0 8.0
277 2 -0.945 5.0 5.0 9.5
278 2 -0.945 5.0 5.0 11.0
279 2 -0.945 5.0 5.0 12.5
280 2 -0.945 6.5 5.0 0.5
281 2 -0.945 6.5 5.0 2.0
282 2 -0.945 6.5 5.0 3.5
283 2 -0.945 6.5 5.0 5.0
284 2 -0.945 6.5 5.0 6.5
285 2 -0.945 6.5 5.0 8.0
286 2 -0.945 6.5 5.0 9.5
287 2 -0.945 6.5 5.0 11.0
288 2 -0.945 6.5 5.0 12.5
289 2 -0.945 8.0 5.0 0.5
290 2 -0.945 8.0 5.0 2.0
291 2 -0.945 8.0 5.0 3.5
292 2 -0.945 8.0 5.0 5.0
293 2 -0.945 8.0 5.0 6.5
294 2 -0.945 8.0 5.0 8.0
295 2 -0.945 8.0 5.0 9.5
296 2 -0.945 8.0 5.0 11.0
297 2 -0.945 8.0 5.0 12.5
298 2 -0.945 9.5 5.0 0.5
299 2 -0.945 9.5 5.0 2.0
300 2 -0.945 9.5 5.0 3.5
301 2 -0.945 9.5 5.0 5.0
302 2 -0.945 9.5 5.0 6.5
303 2 -0.945 9.5 5.0 8.0
304 2 -0.945 9.5 5.0 9.5
305 2 -0.945 9.5 5.0 11.0
306 2 -0.945 9.5 5.0 12.5
307 2 -0.945 11.0 5.0 0.5
308 2 -0.945 11.0 5.0 2.0
309 2 -0.945 11.0 5.0 3.5
310 2 -0.945 11.0 5.0 5.0
311 2 -0.945 11.0 5.0 6.5
312 2 -0.945 11.0 5.0 8.0
313 2 -0.945 11.0 5.0 9.5
314 2 -0.945 11.0 5.0 11.0
315 2 -0.945 11.0 5.0 12.5
316 2 -0.945 12.5 5.0 0.5
317 2 -0.945 12.5 5.0 2.0
318 2 -0.945 12.5 5.0 3.5
319 2 -0.945 12.5 5.0 5.0
320 2 -0.945 12.5 5.0 6.5
321 2 -0.945 12.5 5.0 8.0
322 2 -0.945 12.5 5.0 9.5
323 2 -0.945 12.5 5.0 11.0
324 2 -0.945 12.5 5.0 12.5
325 2 -0.945 0.5 6.5 0.5
326 2 -0.945 0.5 6.5 2.0
327 2 -0.945 0.5 6.5 3.5
328 2 -0.945 0.5 6.5 5.0
329 2 -0.945 0.5 6.5 6.5
330 2 -0.945 0.5 6.5 8.0
331 2 -0.945 0.5 6.5 9.5
332 2 -0.945 0.5 6.5 11.0
333 2 -0.945 0.5 6.5 12.5
334 2 -0.945 2.0 6.5 0.5
335 2 -0.945 2.0 6.5 2.0
336 2 -0.945 2.0 6.5 3.5
337 2 -0.945 2.0 6.5 5.0
338 2 -0.945 2.0 6.5 6.5
339 2 -0.945 2.0 6.5 8.0
340 2 -0.945 2.0 6.5 9.5
341 2 -0.945 2.0 6.5 11.0
342 2 -0.945 2.0 6.5 12.5
343 2 -0.945 3.5 6.5 0.5
344 2 -0.945 3.5 6.5 2.0
345 2 -0.945 3.5 6.5 3.5
346 2 -0.945 3.5 6.5 5.0
347 2 -0.945 3.5 6.5 6.5
348 2 -0.945 3.5 6.5 8.0
349 2 -0.945 3.5 6.5 9.5
350 2 -0.945 3.5 6.5 11.0
351 2 -0.945 3.5 6.5 12.5
352 2 -0.945 5.0 6.5 0.5
353 2 -0.945 5.0 6.5 2.0
354 2 -0.945 5.0 6.5 3.5
355 2 -0.945 5.0 6.5 5.0
356 2 -0.945 5.0 6.5 6.5
357 2 -0.945 5.0 6.5 8.0
358 2 -0.945 5.0 6.5 9.5
359 2 -0.945 5.0 6.5 11.0
360 2 -0.945 5.0 6.5 12.5
361 2 -0.945 6.5 6.5 0.5
362 2 -0.945 6.5 6.5 2.0
363 2 -0.945 6.5 6.5 3.5
364 2 -0.945 6.5 6.5 5.0
365 2 -0.945 6.5 6.5 6.5
366 2 -0.945 6.5 6.5 8.0
367 2 -0.945 6.5 6.5 9.5
368 2 -0.945 6.5 6.5 11.0
369 2 -0.945 6.5 6.5 12.5
370 2 -0.945 8.0 6.5 0.5
371 2 -0.945 8.0 6.5 2.0
372 2 -0.945 8.0 6.5 3.5
373 2 -0.945 8.0 6.5 5.0
374 2 -0.945 8.0 6.5 6.5
375 2 -0.945 8.0 6.5 8.0
376 2 -0.945 8.0 6.5 9.5
377 2 -0.945 8.0 6.5 11.0
378 2 -0.945 8.0 6.5 12.5
379 2 -0.945 9.5 6.5 0.5
380 2 -0.945 9.5 6.5 2.0
381 2 -0.945 9.5 6.5 3.5
382 2 -0.945 9.5 6.5 5.0
383 2 -0.945 9.5 6.5 6.5
384 2 -0.945 9.5 6.5 8.0
385 2 -0.945 9.5 6.5 9.5
386 2 -0.945 9.5 6.5 11.0
387 2 -0.945 9.5 6.5 12.5
388 2 -0.945 11.0 6.5 0.5
389 2 -0.945 11.0 6.5 2.0
390 2 -0.945 11.0 6.5 3.5
391 2 -0.945 11.0 6.5 5.0
392 2 -0.945 11.0 6.5 6.5
393 2 -0.945 11.0 6.5 8.0
394 2 -0.945 11.0 6.5 9.5
395 2 -0.945 11.0 6.5 11.0
396 2 -0.945 11.0 6.5 12.5
397 2 -0.945 12.5 6.5 0.5
398 2 -0.945 12.5 6.5 2.0
399 2 -0.945 12.5 6.5 3.5
400 2 -0.945 12.5 6.5 5.0
401 2 -0.945 12.5 6.5 6.5
402 2 -0.945 12.5 6.5 8.0
403 2 -0.945 12.5 6.5 9.5
404 2 -0.945 12.5 6.5 11.0
405 2 -0.945 12.5 6.5 12.5
406 2 -0.945 0.5 8.0 0.5
407 2 -0.945 0.5 8.0 2.0
408 2 -0.945 0.5 8.0 3.5
409 2 -0.945 0.5 8.0 5.0
410 2 -0.945 0.5 8.0 6.5
411 2 -0.945 0.5 8.0 8.0
412 2 -0.945 0.5 8.0 9.5
413 2 -0.945 0.5 8.0 11.0
414 2 -0.945 0.5 8.0 12.5
415 2 -0.945 2.0 8.0 0.5
416 2 -0.945 2.0 8.0 2.0
417 2 -0.945 2.0 8.0 3.5
418 2 -0.945 2.0 8.0 5.0
419 2 -0.945 2.0 8.0 6.5
420 2 -0.945 2.0 8.0 8.0
421 2 -0.945 2.0 8.0 9.5
422 2 -0.945 2.0 8.0 11.0
423 2 -0.945 2.0 8.0 12.5
424 2 -0.945 3.5 8.0 0.5
425 2 -0.945 3.5 8.0 2.0
426 2 -0.945 3.5 8.0 3.5
427 2 -0.945 3.5 8.0 5.0
428 2 -0.945 3.5 8.0 6.5
429 2 -0.945 3.5 8.0 8.0
430 2 -0.945 3.5 8.0 9.5
431 2 -0.945 3.5 8.0 11.0
432 2 -0.945 3.5 8.0 12.5
433 2 -0.945 5.0 8.0 0.5
434 2 -0.945 5.0 8.0 2.0
435 2 -0.945 5.0 8.0 3.5
436 2 -0.945 5.0 8.0 5.0
437 2 -0.945 5.0 8.0 6.5
438 2 -0.945 5.0 8.0 8.0
439 2 -0.945 5.0 8.0 9.5
440 2 -0.945 5.0 8.0 11.0
441 2 -0.945 5.0 8.0 12.5
442 2 -0.945 6.5 8.0 0.5
443 2 -0.945 6.5 8.0 2.0
444 2 -0.945 6.5 8.0 3.5
445 2 -0.945 6.5 8.0 5.0
446 2 -0.945 6.5 8.0 6.5
447 2 -0.945 6.5 8.0 8.0
448 2 -0.945 6.5 8.0 9.5
449 2 -0.945 6.5 8.0 11.0
450 2 -0.945 6.5 8.0 12.5
451 2 -0.945 8.0 8.0 0.5
452 2 -0.945 8.0 8.0 2.0
453 2 -0.945 8.0 8.0 3.5
454 2 -0.945 8.0 8.0 5.0
455 2 -0.945 8.0 8.0 6.5
456 2 -0.945 8.0 8.0 8.0
457 2 -0.945 8.0 8.0 9.5
458 2 -0.945 8.0 8.0 11.0
459 2 -0.945 8.0 8.0 12.5
460 2 -0.945 9.5 8.0 0.5
461 2 -0.945 9.5 8.0 2.0
462 2 -0.945 9.5 8.0 3.5
463 2 -0.945 9.5 8.0 5.0
464 2 -0.945 9.5 8.0 6.5
465 2 -0.945 9.5 8.0 8.0
466 2 -0.945 9.5 8.0 9.5
467 2 -0.945 9.5 8.0 11.0
468 2 -0.945 9.5 8.0 12.5
469 2 -0.945 11.0 8.0 0.5
470 2 -0.945 11.0 8.0 2.0
471 2 -0.945 11.0 8.0 3.5
472 2 -0.945 11.0 8.0 5.0
473 2 -0.945 11.0 8.0 6.5
474 2 -0.945 11.0 8.0 8.0
475 2 -0.945 11.0 8.0 9.5
476 2 -0.945 11.0 8.0 11.0
477 2 -0.945 11.0 8.0 12.5
478 2 -0.945 12.5 8.0 0.5
479 2 -0.945 12.5 8.0 2.0
480 2 -0.945 12.5 8.0 3.5
481 2 -0.945 12.5 8.0 5.0
482 2 -0.945 12.5 8.0 6.5
483 2 -0.945 12.5 8.0 8.0
484 2 -0.945 12.5 8.0 9.5
485 2 -0.945 12.5 8.0 11.0
486 2 -0.945 12.5 8.0 12.5
487 2 -0.945 0.5 9.5 0.5
488 2 -0.945 0.5 9.5 2.0
489 2 -0.945 0.5 9.5 3.5
490 2 -0.945 0.5 9.5 5.0
491 2 -0.945 0.5 9.5 6.5
492 2 -0.945 0.5 9.5 8.0
493 2 -0.945 0.5 9.5 9.5
494 2 -0.945 0.5 9.5 11.0
495 2 -0.945 0.5 9.5 12.5
496 2 -0.945 2.0 9.5 0.5
497 2 -0.945 2.0 9.5 2.0
498 2 -0.945 2.0 9.5 3.5
499 2 -0.945 2.0 9.5 5.0
500 2 -0.945 2.0 9.5 6.5